LAMMPS (14 May 2021)
OMP_NUM_THREADS environment is not set. Defaulting to 1 thread. (src/comm.cpp:98)
  using 1 OpenMP thread(s) per MPI task
# 3D Lennard-Jones NVT

#NOTES:
# The variable "rho" is read from the command line argument:
#  E.G., "lmp_serial -in foo -var rho bar1 -var temp bar2"
#  foo = input filename
#  bar1 = input value for variable rho (density)
#  bar2 = input value for variable temp (temperature)
# The restart file specifies the following:
#   System volume, conformation, periodicity
#   Initial configuration and velocities
#   The molecular model (i.e., pair potential, molecular topology)
# The configuration in the restart file is a relaxed configuration
#   for the temperature at which the configuration was generated (T*=1.50).

read_restart    restart/in.nvt.dens_${rho}               #Specify the LAMMPS restart file
read_restart    restart/in.nvt.dens_0.010               
Reading restart file ...
  restart file = 14 May 2021, LAMMPS = 14 May 2021
  restoring atom style atomic from restart
  orthogonal box = (0.0000000 0.0000000 0.0000000) to (21.544347 21.544347 21.544347)
  2 by 2 by 2 MPI processor grid
  restoring pair style lj/cut from restart
  100 atoms
  read_restart CPU = 0.002 seconds
reset_timestep  0                                #Reset the time step counter to 0

#Run Parameters
variable        ext_temp equal ${temp}           #Specify the Thermostat Temperature
variable        ext_temp equal 0.85           
variable        Nevery equal 20                  #Specify the distance (in timesteps) between samples for computing ensemble averages
                                                 #  (Interval between samples in a block)
variable        Nrepeat equal 50                 #Specify the number of samples per output  of thermodynamic averages
                                                 #  (Samples per block output)
variable        Nfreq equal ${Nevery}*${Nrepeat} #Specify the dump interval (in timesteps)
variable        Nfreq equal 20*${Nrepeat} 
variable        Nfreq equal 20*50 
                                                 #  (Some people call these blocks)
variable        nequil equal 100000             #Equilibration length (in timesteps)
variable        nprod  equal 1000000            #Production length (in timesteps)
variable        nrun equal ${nequil}+${nprod}    #Total run length: equilibration + production (in timesteps)
variable        nrun equal 100000+${nprod}    
variable        nrun equal 100000+1000000    
variable        Tdamp equal 0.500                #Specify the Thermostat damping parameter (in time units ; not timesteps)

#Neighbor List
neighbor        0.3 bin                          #Specify the skin distance (padding beyond the cutoff)
neigh_modify    delay 0 every 20 check no        #Adjust the default neighbor list:
                                                 #  (delay 0)
                                                 #  (every 20)
                                                 #  (check no)

#Ensemble Setup: NVT ensemble, thermostatted by Nose-Hoover a chained thermostat, set at temperature $ext_temp
fix		1 all nvt temp ${ext_temp} ${ext_temp} ${Tdamp}
fix		1 all nvt temp 0.85 ${ext_temp} ${Tdamp}
fix		1 all nvt temp 0.85 0.85 ${Tdamp}
fix		1 all nvt temp 0.85 0.85 0.5
Resetting global fix info from restart file:
  fix style: nvt, fix ID: 1

#Output
variable        PotentialEnergy equal epair         #Call the intermolecular potential energy $PotentialEnergy
variable        Pressure equal press                #Call the pressure $Pressure
variable        Temperature equal temp              #Call the instantaneous temperature $Temperature
fix             2 all ave/time ${Nevery} ${Nrepeat} ${Nfreq} v_Temperature v_PotentialEnergy v_Pressure file out/ave.dens_${rho}_${temp}.out
fix             2 all ave/time 20 ${Nrepeat} ${Nfreq} v_Temperature v_PotentialEnergy v_Pressure file out/ave.dens_${rho}_${temp}.out
fix             2 all ave/time 20 50 ${Nfreq} v_Temperature v_PotentialEnergy v_Pressure file out/ave.dens_${rho}_${temp}.out
fix             2 all ave/time 20 50 1000 v_Temperature v_PotentialEnergy v_Pressure file out/ave.dens_${rho}_${temp}.out
fix             2 all ave/time 20 50 1000 v_Temperature v_PotentialEnergy v_Pressure file out/ave.dens_0.010_${temp}.out
fix             2 all ave/time 20 50 1000 v_Temperature v_PotentialEnergy v_Pressure file out/ave.dens_0.010_0.85.out
thermo          10000                               #Specify the interval between screen output of thermodynamic averages
thermo_style    custom step temp epair press        #Print the timestep, temperature, potential energy, and pressure to screen

#Run it!
run             ${nrun}                          #Run the simulation
run             1100000                          
All restart file global fix info was re-assigned
Neighbor list info ...
  update every 20 steps, delay 0 steps, check no
  max neighbors/atom: 2000, page size: 100000
  master list distance cutoff = 3.8
  ghost atom cutoff = 3.8
  binsize = 1.9, bins = 12 12 12
  1 neighbor lists, perpetual/occasional/extra = 1 0 0
  (1) pair lj/cut, perpetual
      attributes: half, newton on
      pair build: half/bin/atomonly/newton
      stencil: half/bin/3d
      bin: standard
Per MPI rank memory allocation (min/avg/max) = 2.563 | 2.563 | 2.563 Mbytes
Step Temp E_pair Press 
       0    1.5435735 -0.090273725  0.015735762 
   10000   0.80307193  -0.14716144 0.0072277891 
   20000   0.95046081  -0.10348893 0.0085132145 
   30000   0.84441407  -0.10844587 0.0077136639 
   40000    0.8064132 -0.099126306 0.0068268394 
   50000   0.92476802 -0.096130909 0.0083771503 
   60000   0.82899378  -0.09733415 0.0067543612 
   70000    0.8557753  -0.13369288 0.0076678086 
   80000   0.78638098  -0.13040459 0.0081017086 
   90000    0.7832001  -0.11923596 0.0074459651 
  100000   0.88348317   -0.1175675 0.0093650233 
  110000   0.92957468 -0.096030956 0.0076181664 
  120000   0.81196963 -0.097874129 0.0066107418 
  130000    1.0260818  -0.10936423  0.010133734 
  140000   0.82727817 -0.088802263 0.0071886136 
  150000   0.80998709 -0.073214248 0.0070151252 
  160000   0.70364753 -0.070298265 0.0061341203 
  170000    1.0498856  -0.10859921  0.010043741 
  180000    1.0011411 -0.085980499  0.009790548 
  190000   0.84736336  -0.10568367 0.0092441763 
  200000   0.83486852   -0.1315327 0.0076837665 
  210000   0.81296301  -0.11137097 0.0064424093 
  220000   0.77662491   -0.1082982 0.0078569778 
  230000   0.86032826  -0.13140765 0.0079349643 
  240000   0.95134993  -0.05375544   0.00861416 
  250000   0.81729407 -0.099900634  0.007469977 
  260000    1.0320424 -0.099762684  0.010322548 
  270000   0.82178944   -0.1009067 0.0071426014 
  280000   0.84875209 -0.084274583 0.0072694787 
  290000   0.72135053  -0.11740414 0.0059432385 
  300000   0.84857118 -0.061317125 0.0085050606 
  310000   0.87383404 -0.089160993 0.0080219981 
  320000   0.73591033  -0.12921342  0.006501519 
  330000   0.97810385  -0.11862329   0.00808757 
  340000   0.86926647 -0.081307731 0.0089312388 
  350000   0.82431795 -0.067040369 0.0079501863 
  360000   0.82468671 -0.093237329 0.0074127225 
  370000   0.82354918  -0.08342411 0.0084863564 
  380000   0.77639712 -0.060572363 0.0068996656 
  390000    0.8190102 -0.080043978 0.0081970753 
  400000   0.89045568  -0.11703458 0.0073515315 
  410000   0.91162992  -0.11955687 0.0081096347 
  420000   0.82133448  -0.14245895 0.0069380454 
  430000     0.727576  -0.12161102 0.0062439368 
  440000   0.78527389   -0.1223743 0.0064869586 
  450000   0.97147678  -0.19450776 0.0089002767 
  460000    0.8485101 -0.044717931 0.0079495422 
  470000   0.86864059   -0.1104955 0.0077639721 
  480000   0.92713003 -0.091976053 0.0083394619 
  490000   0.78018746  -0.07506471 0.0065922142 
  500000   0.82298316 -0.081828033  0.007132383 
  510000   0.92265142  -0.14640687 0.0094248845 
  520000   0.80214923 -0.099845593 0.0074339948 
  530000   0.79634991  -0.05992242 0.0069046277 
  540000    0.8715398 -0.097306637 0.0087488871 
  550000    0.9215584  -0.12732248 0.0085476791 
  560000   0.76829921  -0.12010032 0.0059081761 
  570000   0.87911376  -0.12027941 0.0074122924 
  580000   0.85565301 -0.049595916  0.007850225 
  590000   0.86674907  -0.15954314 0.0066019589 
  600000    0.7709261  -0.13957329 0.0073735494 
  610000   0.93991307  -0.19403379 0.0077422565 
  620000   0.83741926 -0.066961032 0.0078534038 
  630000   0.84659933  -0.09809915 0.0073882005 
  640000   0.86258713  -0.11133097 0.0085963828 
  650000   0.83017233  -0.12003222 0.0076370538 
  660000    0.8633229 -0.098211819 0.0071655688 
  670000   0.88595999  -0.12291799 0.0095868659 
  680000   0.83929571  -0.10484777 0.0092829871 
  690000   0.80861265  -0.10574151 0.0068502778 
  700000   0.75539329 -0.061194339 0.0067403233 
  710000   0.84628737 -0.074386214 0.0076960592 
  720000    0.9392605 -0.082660268 0.0096392366 
  730000   0.77914522 -0.046373122 0.0083512072 
  740000    0.9335061 -0.088852429  0.009476784 
  750000    0.8646227 -0.067704715 0.0088565494 
  760000   0.85892453 -0.090096914 0.0072481884 
  770000    1.1250669  -0.10318262 0.0097815653 
  780000   0.84285339 -0.084834281 0.0073116936 
  790000   0.80250224 -0.082586607 0.0074747734 
  800000   0.81140866 -0.074344274 0.0068855913 
  810000    1.0048652  -0.11065236  0.008580084 
  820000    0.9531334  -0.14868697 0.0078911975 
  830000   0.96877955  -0.11834299 0.0095485233 
  840000   0.81519654  -0.16756933 0.0064137946 
  850000   0.84777286  -0.15529118 0.0071571081 
  860000   0.76204178  -0.12937354 0.0069193793 
  870000   0.83134891  -0.11699791 0.0085904304 
  880000   0.81394127 -0.095839412 0.0078986274 
  890000    0.9081139 -0.074500343 0.0081689913 
  900000    0.8601479 -0.083489936 0.0074397913 
  910000   0.73592669  -0.14350239 0.0068159971 
  920000   0.72155347  -0.11614735 0.0071002967 
  930000   0.77437203  -0.11219701 0.0070541582 
  940000   0.86891946 -0.082799021 0.0086866892 
  950000   0.89794681 -0.095381667 0.0075897151 
  960000   0.74047021 -0.081672998 0.0067065285 
  970000   0.71526118 -0.092351372 0.0076494864 
  980000   0.86058341  -0.10452034 0.0083553517 
  990000   0.88726773  -0.13139943 0.0078207024 
 1000000   0.91658648  -0.13029455  0.009456662 
 1010000   0.75988373 -0.093628151  0.007103438 
 1020000   0.87170493 -0.092054491 0.0090244525 
 1030000   0.88877104 -0.056129309  0.009276203 
 1040000   0.84882784  -0.11743212 0.0071891132 
 1050000   0.95755162  -0.11734781 0.0092017269 
 1060000   0.83203838  -0.10265829  0.006874824 
 1070000   0.85911813  -0.13871667 0.0074558448 
 1080000   0.78743833  -0.11360045 0.0069144923 
 1090000   0.82243071  -0.10180771 0.0069370859 
 1100000    0.8084451  -0.16932981 0.0063938234 
Loop time of 17.6388 on 8 procs for 1100000 steps with 100 atoms

Performance: 26940655.957 tau/day, 62362.630 timesteps/s
99.7% CPU use with 8 MPI tasks x 1 OpenMP threads

MPI task timing breakdown:
Section |  min time  |  avg time  |  max time  |%varavg| %total
---------------------------------------------------------------
Pair    | 0.53205    | 0.54416    | 0.56447    |   1.3 |  3.09
Neigh   | 0.39507    | 0.40047    | 0.40438    |   0.5 |  2.27
Comm    | 12.504     | 12.563     | 12.636     |   1.5 | 71.22
Output  | 0.0026921  | 0.0042583  | 0.015167   |   6.3 |  0.02
Modify  | 3.6661     | 3.7284     | 3.7764     |   2.4 | 21.14
Other   |            | 0.3989     |            |       |  2.26

Nlocal:        12.5000 ave          17 max           9 min
Histogram: 1 1 0 3 0 0 2 0 0 1
Nghost:        49.5000 ave          56 max          42 min
Histogram: 1 0 0 1 0 3 2 0 0 1
Neighs:        15.5000 ave          27 max           8 min
Histogram: 1 2 0 2 0 0 2 0 0 1

Total # of neighbors = 124
Ave neighs/atom = 1.2400000
Neighbor list builds = 55000
Dangerous builds not checked
Total wall time: 0:00:17
