LAMMPS (14 May 2021)
OMP_NUM_THREADS environment is not set. Defaulting to 1 thread. (src/comm.cpp:98)
  using 1 OpenMP thread(s) per MPI task
# 3D Lennard-Jones NVT

#NOTES:
# The variable "rho" is read from the command line argument:
#  E.G., "lmp_serial -in foo -var rho bar1 -var temp bar2"
#  foo = input filename
#  bar1 = input value for variable rho (density)
#  bar2 = input value for variable temp (temperature)
# The restart file specifies the following:
#   System volume, conformation, periodicity
#   Initial configuration and velocities
#   The molecular model (i.e., pair potential, molecular topology)
# The configuration in the restart file is a relaxed configuration
#   for the temperature at which the configuration was generated (T*=1.50).

read_restart    restart/in.nvt.dens_${rho}               #Specify the LAMMPS restart file
read_restart    restart/in.nvt.dens_0.001               
Reading restart file ...
  restart file = 14 May 2021, LAMMPS = 14 May 2021
  restoring atom style atomic from restart
  orthogonal box = (0.0000000 0.0000000 0.0000000) to (46.415888 46.415888 46.415888)
  2 by 2 by 2 MPI processor grid
  restoring pair style lj/cut from restart
  100 atoms
  read_restart CPU = 0.002 seconds
reset_timestep  0                                #Reset the time step counter to 0

#Run Parameters
variable        ext_temp equal ${temp}           #Specify the Thermostat Temperature
variable        ext_temp equal 0.90           
variable        Nevery equal 20                  #Specify the distance (in timesteps) between samples for computing ensemble averages
                                                 #  (Interval between samples in a block)
variable        Nrepeat equal 50                 #Specify the number of samples per output  of thermodynamic averages
                                                 #  (Samples per block output)
variable        Nfreq equal ${Nevery}*${Nrepeat} #Specify the dump interval (in timesteps)
variable        Nfreq equal 20*${Nrepeat} 
variable        Nfreq equal 20*50 
                                                 #  (Some people call these blocks)
variable        nequil equal 100000             #Equilibration length (in timesteps)
variable        nprod  equal 1000000            #Production length (in timesteps)
variable        nrun equal ${nequil}+${nprod}    #Total run length: equilibration + production (in timesteps)
variable        nrun equal 100000+${nprod}    
variable        nrun equal 100000+1000000    
variable        Tdamp equal 0.500                #Specify the Thermostat damping parameter (in time units ; not timesteps)

#Neighbor List
neighbor        0.3 bin                          #Specify the skin distance (padding beyond the cutoff)
neigh_modify    delay 0 every 20 check no        #Adjust the default neighbor list:
                                                 #  (delay 0)
                                                 #  (every 20)
                                                 #  (check no)

#Ensemble Setup: NVT ensemble, thermostatted by Nose-Hoover a chained thermostat, set at temperature $ext_temp
fix		1 all nvt temp ${ext_temp} ${ext_temp} ${Tdamp}
fix		1 all nvt temp 0.9 ${ext_temp} ${Tdamp}
fix		1 all nvt temp 0.9 0.9 ${Tdamp}
fix		1 all nvt temp 0.9 0.9 0.5
Resetting global fix info from restart file:
  fix style: nvt, fix ID: 1

#Output
variable        PotentialEnergy equal epair         #Call the intermolecular potential energy $PotentialEnergy
variable        Pressure equal press                #Call the pressure $Pressure
variable        Temperature equal temp              #Call the instantaneous temperature $Temperature
fix             2 all ave/time ${Nevery} ${Nrepeat} ${Nfreq} v_Temperature v_PotentialEnergy v_Pressure file out/ave.dens_${rho}_${temp}.out
fix             2 all ave/time 20 ${Nrepeat} ${Nfreq} v_Temperature v_PotentialEnergy v_Pressure file out/ave.dens_${rho}_${temp}.out
fix             2 all ave/time 20 50 ${Nfreq} v_Temperature v_PotentialEnergy v_Pressure file out/ave.dens_${rho}_${temp}.out
fix             2 all ave/time 20 50 1000 v_Temperature v_PotentialEnergy v_Pressure file out/ave.dens_${rho}_${temp}.out
fix             2 all ave/time 20 50 1000 v_Temperature v_PotentialEnergy v_Pressure file out/ave.dens_0.001_${temp}.out
fix             2 all ave/time 20 50 1000 v_Temperature v_PotentialEnergy v_Pressure file out/ave.dens_0.001_0.90.out
thermo          10000                               #Specify the interval between screen output of thermodynamic averages
thermo_style    custom step temp epair press        #Print the timestep, temperature, potential energy, and pressure to screen

#Run it!
run             ${nrun}                          #Run the simulation
run             1100000                          
All restart file global fix info was re-assigned
Neighbor list info ...
  update every 20 steps, delay 0 steps, check no
  max neighbors/atom: 2000, page size: 100000
  master list distance cutoff = 3.8
  ghost atom cutoff = 3.8
  binsize = 1.9, bins = 25 25 25
  1 neighbor lists, perpetual/occasional/extra = 1 0 0
  (1) pair lj/cut, perpetual
      attributes: half, newton on
      pair build: half/bin/atomonly/newton
      stencil: half/bin/3d
      bin: standard
Per MPI rank memory allocation (min/avg/max) = 2.579 | 2.579 | 2.579 Mbytes
Step Temp E_pair Press 
       0    1.4668208 -0.012349066 0.0014409761 
   10000   0.74332436 -0.0040340226 0.00072849417 
   20000    0.8712055 -0.011164556 0.00084905589 
   30000   0.93411597 -0.018633628 0.00095918499 
   40000    0.9749995 -0.0028311286 0.00095970685 
   50000   0.90403819 -0.013101434 0.00087892512 
   60000   0.92291341 -0.001970144 0.00090979142 
   70000   0.90390843 -0.0035828673 0.00088817792 
   80000   0.96556101 -0.015513035 0.00094431661 
   90000    0.8509274 -0.027841792 0.00084659386 
  100000   0.95513677 -0.00079598473 0.00094400334 
  110000   0.87405006 -0.011016306 0.00087858306 
  120000   0.99462349 -0.0059783229 0.00097369408 
  130000   0.84556594 -0.0062486844 0.00082516405 
  140000   0.79645486 -0.0096336755 0.00082024073 
  150000   0.93587071 -0.018616978 0.00089879368 
  160000   0.89134434 -0.00029975459 0.00088183216 
  170000    0.9573427 -0.024125871 0.00093162405 
  180000    1.0465514 -0.024582113 0.0010178967 
  190000   0.90501306 -0.0067097163 0.00088371378 
  200000   0.72260603 -0.0036304823 0.00070881681 
  210000   0.86277184 -0.0093448411 0.00083821561 
  220000   0.94368417 -0.0076433217 0.00092075048 
  230000   0.95058573 -0.00076477786 0.00093955892 
  240000   0.79213926 -0.0040199927 0.0007769188 
  250000   0.91744995 -0.0017179801 0.00090490504 
  260000   0.87479451 -0.00048508754 0.00086508141 
  270000   0.92615457 -0.0019069923 0.00091312276 
  280000   0.92317248 -0.0013717932 0.00091122284 
  290000    1.0511032 -0.020004949 0.0010535338 
  300000   0.82409728 -0.011342073 0.00079832207 
  310000    0.9472884 -0.0094686458 0.00092479606 
  320000   0.76680094 -0.016527154 0.00074304992 
  330000   0.94311677 -0.0034185411 0.00092705275 
  340000   0.81897908 -0.014620912 0.00079335205 
  350000   0.87720783 -0.0045653973 0.00086007078 
  360000   0.83939651 -0.0093892583 0.00081432158 
  370000   0.84709383 -0.0021468724 0.00083441124 
  380000    1.0192158 -0.0014931365 0.0010060676 
  390000   0.90550074 -0.0015115708 0.00089350272 
  400000   0.97588259 -0.010614277 0.00095575527 
  410000   0.88076429 -7.0916905e-05 0.00087181494 
  420000   0.83587752 -0.0094140647 0.00081428221 
  430000   0.95278795 -0.017238658 0.00093037203 
  440000   0.90193842 -0.0012827972 0.0008904105 
  450000   0.92309432 -0.0034392925 0.00090736379 
  460000    1.0023239  -0.01001731 0.0010126745 
  470000   0.93077352 -0.011188374 0.00091951908 
  480000   0.96869273 -0.0090229213 0.00094254897 
  490000   0.81382023 -0.0029982704  0.000800157 
  500000    1.0973873 -0.002926615 0.0010807141 
  510000   0.77231492 -0.0047525959 0.00075637695 
  520000   0.91583322 -0.0081359968 0.0008933636 
  530000   0.94125103 -0.018217511 0.00090503671 
  540000   0.90406332 -0.020215137 0.00087655009 
  550000   0.83445598 -0.011113111 0.0008231029 
  560000   0.95738332 -0.0079588123 0.00093292871 
  570000   0.81265416 -0.0010326931 0.0008024732 
  580000   0.98353317 -0.012064859 0.00095558807 
  590000   0.93628125 -0.012751346 0.0009154167 
  600000   0.82178691 -0.018594373 0.00081657859 
  610000   0.88134412 -0.018835789 0.00084792596 
  620000    1.0684066 -0.019333828 0.0010385926 
  630000   0.87420299 -0.016399643 0.00085447378 
  640000   0.93080176 -0.010457993 0.00090934143 
  650000    0.9096419 -0.0036496364 0.00089342463 
  660000   0.95602392 -0.010855106 0.00093700034 
  670000     0.908483 -0.0097772367 0.00088523084 
  680000   0.94375228 -0.0066363112 0.00092376542 
  690000   0.91791393 -0.0060231128 0.00089783901 
  700000   0.80069839 -0.0045492774 0.0007846344 
  710000   0.97145186 -0.024490648 0.00094858043 
  720000   0.80345925 -0.019515173 0.00077293732 
  730000    0.8759733 -0.0032080609 0.00086114213 
  740000   0.87599828 -0.0099080748 0.00085068342 
  750000   0.94131303 -0.014680074 0.00091006621 
  760000   0.74933074 -0.0086788165 0.00072679182 
  770000   0.80022735 -0.0029231368 0.00078673633 
  780000   0.92094067 -0.012379989 0.00090325742 
  790000   0.93625733 -0.00031297737 0.00092627089 
  800000    0.8592826 -0.0095375892 0.00083809674 
  810000   0.92832835 -0.013967756 0.00089420756 
  820000   0.82053989 -0.010877351 0.00079211234 
  830000   0.92479404 -0.0032213899 0.00090962522 
  840000   0.91435558 -0.0005989091 0.00090401608 
  850000    0.8543661 -0.0073687211 0.00083435839 
  860000   0.95547478 -0.0068602788 0.00093457476 
  870000   0.90239197 -0.019074815 0.00089307708 
  880000   0.87761065 -0.028809303 0.00091719472 
  890000     0.866605 -0.010095732 0.00085425775 
  900000   0.89378281 -0.00059482214 0.00088366133 
  910000   0.96479092 -0.0094361198 0.00093930143 
  920000   0.88665152 -0.00056584221 0.00087665895 
  930000   0.86137714 -0.00065667041 0.00085145569 
  940000   0.81781932 -0.0056002252 0.00079912333 
  950000    1.0834108 -0.010337343  0.001065062 
  960000   0.87286814  -0.01120387 0.00086534203 
  970000   0.92821954 -0.013913227 0.00093108751 
  980000   0.93389674 -0.020269018 0.00092025095 
  990000   0.85019657 -0.0018808901 0.00083808484 
 1000000   0.90134853 -0.0034434978 0.00088585779 
 1010000    0.9636315  -0.02366423 0.00093598463 
 1020000   0.98505077 -0.0033682116 0.00096857634 
 1030000   0.91700309  -0.01265266 0.00089342807 
 1040000   0.81858509 -0.010633574 0.00079479613 
 1050000   0.86511393 -0.014807203 0.00086525819 
 1060000   0.81582422 -0.00096173141 0.00080576016 
 1070000   0.78793615 -0.014422239 0.00078008732 
 1080000    1.0275109 -0.00096567551 0.0010153379 
 1090000   0.81260353 -0.0044431342 0.00087970078 
 1100000   0.81719342 -0.00084219229 0.00080735073 
Loop time of 13.8436 on 8 procs for 1100000 steps with 100 atoms

Performance: 34326243.311 tau/day, 79458.897 timesteps/s
99.6% CPU use with 8 MPI tasks x 1 OpenMP threads

MPI task timing breakdown:
Section |  min time  |  avg time  |  max time  |%varavg| %total
---------------------------------------------------------------
Pair    | 0.21903    | 0.22701    | 0.23441    |   1.0 |  1.64
Neigh   | 0.44736    | 0.45351    | 0.4574     |   0.4 |  3.28
Comm    | 8.9967     | 9.0758     | 9.1387     |   1.4 | 65.56
Output  | 0.00271    | 0.0042489  | 0.014961   |   6.2 |  0.03
Modify  | 3.645      | 3.7293     | 3.7856     |   2.2 | 26.94
Other   |            | 0.3537     |            |       |  2.56

Nlocal:        12.5000 ave          16 max           9 min
Histogram: 1 1 0 0 3 0 0 1 1 1
Nghost:        16.0000 ave          19 max          12 min
Histogram: 1 0 1 0 1 1 0 2 1 1
Neighs:       0.750000 ave           1 max           0 min
Histogram: 2 0 0 0 0 0 0 0 0 6

Total # of neighbors = 6
Ave neighs/atom = 0.060000000
Neighbor list builds = 55000
Dangerous builds not checked
Total wall time: 0:00:13
