LAMMPS (14 May 2021)
OMP_NUM_THREADS environment is not set. Defaulting to 1 thread. (src/comm.cpp:98)
  using 1 OpenMP thread(s) per MPI task
# 3D Lennard-Jones NVT

#NOTES:
# The variable "rho" is read from the command line argument:
#  E.G., "lmp_serial -in foo -var rho bar1 -var temp bar2"
#  foo = input filename
#  bar1 = input value for variable rho (density)
#  bar2 = input value for variable temp (temperature)
# The restart file specifies the following:
#   System volume, conformation, periodicity
#   Initial configuration and velocities
#   The molecular model (i.e., pair potential, molecular topology)
# The configuration in the restart file is a relaxed configuration
#   for the temperature at which the configuration was generated (T*=1.50).

read_restart    restart/in.nvt.dens_${rho}               #Specify the LAMMPS restart file
read_restart    restart/in.nvt.dens_0.001               
Reading restart file ...
  restart file = 14 May 2021, LAMMPS = 14 May 2021
  restoring atom style atomic from restart
  orthogonal box = (0.0000000 0.0000000 0.0000000) to (46.415888 46.415888 46.415888)
  2 by 2 by 2 MPI processor grid
  restoring pair style lj/cut from restart
  100 atoms
  read_restart CPU = 0.002 seconds
reset_timestep  0                                #Reset the time step counter to 0

#Run Parameters
variable        ext_temp equal ${temp}           #Specify the Thermostat Temperature
variable        ext_temp equal 1.90           
variable        Nevery equal 20                  #Specify the distance (in timesteps) between samples for computing ensemble averages
                                                 #  (Interval between samples in a block)
variable        Nrepeat equal 50                 #Specify the number of samples per output  of thermodynamic averages
                                                 #  (Samples per block output)
variable        Nfreq equal ${Nevery}*${Nrepeat} #Specify the dump interval (in timesteps)
variable        Nfreq equal 20*${Nrepeat} 
variable        Nfreq equal 20*50 
                                                 #  (Some people call these blocks)
variable        nequil equal 100000             #Equilibration length (in timesteps)
variable        nprod  equal 1000000            #Production length (in timesteps)
variable        nrun equal ${nequil}+${nprod}    #Total run length: equilibration + production (in timesteps)
variable        nrun equal 100000+${nprod}    
variable        nrun equal 100000+1000000    
variable        Tdamp equal 0.500                #Specify the Thermostat damping parameter (in time units ; not timesteps)

#Neighbor List
neighbor        0.3 bin                          #Specify the skin distance (padding beyond the cutoff)
neigh_modify    delay 0 every 20 check no        #Adjust the default neighbor list:
                                                 #  (delay 0)
                                                 #  (every 20)
                                                 #  (check no)

#Ensemble Setup: NVT ensemble, thermostatted by Nose-Hoover a chained thermostat, set at temperature $ext_temp
fix		1 all nvt temp ${ext_temp} ${ext_temp} ${Tdamp}
fix		1 all nvt temp 1.9 ${ext_temp} ${Tdamp}
fix		1 all nvt temp 1.9 1.9 ${Tdamp}
fix		1 all nvt temp 1.9 1.9 0.5
Resetting global fix info from restart file:
  fix style: nvt, fix ID: 1

#Output
variable        PotentialEnergy equal epair         #Call the intermolecular potential energy $PotentialEnergy
variable        Pressure equal press                #Call the pressure $Pressure
variable        Temperature equal temp              #Call the instantaneous temperature $Temperature
fix             2 all ave/time ${Nevery} ${Nrepeat} ${Nfreq} v_Temperature v_PotentialEnergy v_Pressure file out/ave.dens_${rho}_${temp}.out
fix             2 all ave/time 20 ${Nrepeat} ${Nfreq} v_Temperature v_PotentialEnergy v_Pressure file out/ave.dens_${rho}_${temp}.out
fix             2 all ave/time 20 50 ${Nfreq} v_Temperature v_PotentialEnergy v_Pressure file out/ave.dens_${rho}_${temp}.out
fix             2 all ave/time 20 50 1000 v_Temperature v_PotentialEnergy v_Pressure file out/ave.dens_${rho}_${temp}.out
fix             2 all ave/time 20 50 1000 v_Temperature v_PotentialEnergy v_Pressure file out/ave.dens_0.001_${temp}.out
fix             2 all ave/time 20 50 1000 v_Temperature v_PotentialEnergy v_Pressure file out/ave.dens_0.001_1.90.out
thermo          10000                               #Specify the interval between screen output of thermodynamic averages
thermo_style    custom step temp epair press        #Print the timestep, temperature, potential energy, and pressure to screen

#Run it!
run             ${nrun}                          #Run the simulation
run             1100000                          
All restart file global fix info was re-assigned
Neighbor list info ...
  update every 20 steps, delay 0 steps, check no
  max neighbors/atom: 2000, page size: 100000
  master list distance cutoff = 3.8
  ghost atom cutoff = 3.8
  binsize = 1.9, bins = 25 25 25
  1 neighbor lists, perpetual/occasional/extra = 1 0 0
  (1) pair lj/cut, perpetual
      attributes: half, newton on
      pair build: half/bin/atomonly/newton
      stencil: half/bin/3d
      bin: standard
Per MPI rank memory allocation (min/avg/max) = 2.579 | 2.579 | 2.579 Mbytes
Step Temp E_pair Press 
       0    1.4668208 -0.012349066 0.0014409761 
   10000     1.854149 -0.0086736935 0.0018216462 
   20000     1.833051 -0.0052409549 0.0018046182 
   30000    2.0253519 -0.0055196893 0.0019945941 
   40000    1.9080217 -0.010345008 0.0018826617 
   50000    1.6303698 -0.0022368216 0.0016096703 
   60000    1.8466117  -0.01979328 0.0017964468 
   70000    2.1268537 -0.0098074205 0.0021325495 
   80000    1.9521767 -0.00064376228 0.0019313715 
   90000    1.8771637 -0.0020628971 0.0018543658 
  100000    1.8583987 -0.00069162112  0.001838435 
  110000    1.8029034 -0.0012632555  0.001782397 
  120000    1.9485165 -0.0053289096 0.0019192823 
  130000    1.7855277 -0.0015160865 0.0017646775 
  140000    1.9108676 -0.0024701556 0.0018869773 
  150000    1.7227006 -0.0035889196 0.0016990302 
  160000    1.5949147 -0.0062828864  0.001568286 
  170000    1.7718121 -0.0026129116 0.0017489295 
  180000    1.8905767 -0.011426193 0.0018527168 
  190000    1.7904978 -0.0093161355 0.0017634537 
  200000    1.9399369 -0.0028964395 0.0019148763 
  210000     1.790196 -0.011619607   0.00175314 
  220000    2.0076325 -0.0075213328 0.0019737536 
  230000    1.8843805 -0.00081929993 0.0018639048 
  240000    1.9747554 -0.0042375153  0.001946902 
  250000    1.7795515 -0.00059108383 0.0017605786 
  260000    2.0202149 -0.0016990725 0.0019966562 
  270000    1.8169144 -0.0093679212 0.0017853587 
  280000    2.1515718 -0.028755817  0.002143025 
  290000    1.7733505 -0.001238261 0.0017531587 
  300000    1.5953665 -0.0039422622  0.001572223 
  310000    2.0548612 -0.0040287478 0.0020267971 
  320000     2.049324 -0.0022110645 0.0020245201 
  330000    2.1729361 -0.013252609 0.0021353598 
  340000     1.662422 -0.0045243649 0.0016371024 
  350000    1.9728525 -0.015236076 0.0019343989 
  360000    2.1184302 -0.0099678427 0.0020858338 
  370000    1.7116017 -0.00095566462 0.0016925848 
  380000    1.7738787 -0.0032988441 0.0017496971 
  390000    1.9960148 -0.0011523116 0.0019737775 
  400000    1.7806175 -0.0038783354 0.0017558239 
  410000    2.0021525 -0.0023679646 0.0019775057 
  420000    1.9004063 -0.0004681396 0.0018804698 
  430000    2.2090321 -0.00094346161 0.0021850679 
  440000    1.8309289 -0.001323792 0.0018100421 
  450000    2.0014587 -0.0042133766 0.0019733286 
  460000    1.7665614 -0.0020550075  0.001744867 
  470000    1.8011447 -0.0074284775 0.0017708072 
  480000    2.1199702 -0.0097755299 0.0020875055 
  490000    1.8229502 -0.0098109625 0.0017874668 
  500000    1.6403883 -0.011865715 0.0016744958 
  510000    1.7451889 -0.015584094  0.001765904 
  520000    1.7586365 -0.0047952583 0.0017324914 
  530000    1.9068026 -0.0064535055 0.0018754854 
  540000    1.9991008 -0.016066223  0.001975728 
  550000    1.6096904 -0.0015421328 0.0015905467 
  560000    1.8245332 -0.0030887387 0.0018692407 
  570000    1.7971282 -0.0014082338 0.0017763861 
  580000    1.6463376 -0.0046001032 0.0016218214 
  590000    1.7748437 -0.00096681793 0.0017551705 
  600000    2.0887327 -0.006533078 0.0020570872 
  610000    1.9416346 -0.0085485553 0.0019117556 
  620000    2.3390581 -0.0017640194 0.0023121894 
  630000    1.5090696 -0.00061916258 0.0014927467 
  640000     1.890838 -0.0014676895 0.0018690484 
  650000    1.6799308 -0.013443814  0.001649814 
  660000    2.1929216 -0.0035471555 0.0021642786 
  670000    1.8758915 -0.004822007 0.0018486207 
  680000    1.9665567 -0.0035682973 0.0019399884 
  690000    2.0388122 -0.001687587 0.0020150948 
  700000    1.8682492 -0.013514982 0.0018280979 
  710000    1.9784677 -0.0059596005 0.0019488283 
  720000    1.8646274 -0.00062569572 0.0018447351 
  730000    1.9969063 -0.0037617656 0.0020567084 
  740000    2.0126676 -0.011634738 0.0019825845 
  750000     2.333829 -0.0080452824 0.0022956501 
  760000    1.7943142 -0.016444001 0.0017632224 
  770000    2.1418593 -0.0020277646 0.0021165291 
  780000    1.8060462 -0.0072834098 0.0017748398 
  790000    2.1346789 -0.003831347  0.002105961 
  800000    1.9928987 -0.0010156632 0.0019709531 
  810000    2.3693315 -0.00070151985  0.002344239 
  820000     1.839666 -0.0013835756 0.0018185592 
  830000    2.0013594 -0.010926106 0.0019624359 
  840000      1.93426 -0.00090480602 0.0019131176 
  850000     1.939289 -0.002573856 0.0019149227 
  860000    1.7548842 -0.0013671108 0.0017346188 
  870000    1.7643344 -0.012738847 0.0017370326 
  880000    1.9289239 -0.0010938223 0.0019074656 
  890000    2.1266963 -0.010714105 0.0021219462 
  900000    1.9416524 -0.011517208 0.0019194691 
  910000    1.9313574 -0.018345689 0.0018929474 
  920000    1.7485188 -0.012808837 0.0017182544 
  930000    2.0675016 -0.010963664 0.0020337562 
  940000    1.9587365 -0.021260723 0.0019078091 
  950000       1.8111 -0.0042052043 0.0017850861 
  960000    1.8773077 -0.0039733872 0.0018507858 
  970000    1.8694013 -0.016687346 0.0018399956 
  980000    1.9386464 -0.00081161653 0.0019176422 
  990000    1.7100704 -0.024402351 0.0016696694 
 1000000    2.0267442 -0.012605115 0.0020028527 
 1010000    2.0148463 -0.0048304108 0.0019856306 
 1020000    1.9624666 -0.012763621  0.001926015 
 1030000    1.9531982 -0.0014348198 0.0019308477 
 1040000    1.7483995 -0.0088594503 0.0017658937 
 1050000    1.9525895 -0.0045743008 0.0019248853 
 1060000    1.8285722 -0.00043053123 0.0018094276 
 1070000    1.7421477 -0.020140809 0.0017084074 
 1080000     1.758342 -0.022521213  0.001721165 
 1090000    1.8536745 -0.010130636 0.0018222809 
 1100000     1.799855 -0.0095191724 0.0018025732 
Loop time of 13.8756 on 8 procs for 1100000 steps with 100 atoms

Performance: 34247150.529 tau/day, 79275.811 timesteps/s
99.8% CPU use with 8 MPI tasks x 1 OpenMP threads

MPI task timing breakdown:
Section |  min time  |  avg time  |  max time  |%varavg| %total
---------------------------------------------------------------
Pair    | 0.21373    | 0.22459    | 0.22928    |   1.0 |  1.62
Neigh   | 0.45041    | 0.45334    | 0.45626    |   0.3 |  3.27
Comm    | 8.9446     | 9.0774     | 9.1858     |   2.5 | 65.42
Output  | 0.0027003  | 0.0032767  | 0.0071988  |   2.6 |  0.02
Modify  | 3.6557     | 3.7576     | 3.8995     |   4.1 | 27.08
Other   |            | 0.3595     |            |       |  2.59

Nlocal:        12.5000 ave          17 max           9 min
Histogram: 1 0 1 3 0 1 1 0 0 1
Nghost:        17.5000 ave          21 max          12 min
Histogram: 1 0 0 1 0 0 3 2 0 1
Neighs:        1.00000 ave           2 max           0 min
Histogram: 4 0 0 0 0 0 0 0 0 4

Total # of neighbors = 8
Ave neighs/atom = 0.080000000
Neighbor list builds = 55000
Dangerous builds not checked
Total wall time: 0:00:13
