LAMMPS (14 May 2021)
OMP_NUM_THREADS environment is not set. Defaulting to 1 thread. (src/comm.cpp:98)
  using 1 OpenMP thread(s) per MPI task
# 3D Lennard-Jones NVT

#NOTES:
# The variable "rho" is read from the command line argument:
#  E.G., "lmp_serial -in foo -var rho bar1 -var temp bar2"
#  foo = input filename
#  bar1 = input value for variable rho (density)
#  bar2 = input value for variable temp (temperature)
# The restart file specifies the following:
#   System volume, conformation, periodicity
#   Initial configuration and velocities
#   The molecular model (i.e., pair potential, molecular topology)
# The configuration in the restart file is a relaxed configuration
#   for the temperature at which the configuration was generated (T*=1.50).

read_restart    restart/in.nvt.dens_${rho}               #Specify the LAMMPS restart file
read_restart    restart/in.nvt.dens_0.100               
Reading restart file ...
  restart file = 14 May 2021, LAMMPS = 14 May 2021
  restoring atom style atomic from restart
  orthogonal box = (0.0000000 0.0000000 0.0000000) to (10.000000 10.000000 10.000000)
  2 by 2 by 2 MPI processor grid
  restoring pair style lj/cut from restart
  100 atoms
  read_restart CPU = 0.003 seconds
reset_timestep  0                                #Reset the time step counter to 0

#Run Parameters
variable        ext_temp equal ${temp}           #Specify the Thermostat Temperature
variable        ext_temp equal 0.75           
variable        Nevery equal 20                  #Specify the distance (in timesteps) between samples for computing ensemble averages
                                                 #  (Interval between samples in a block)
variable        Nrepeat equal 50                 #Specify the number of samples per output  of thermodynamic averages
                                                 #  (Samples per block output)
variable        Nfreq equal ${Nevery}*${Nrepeat} #Specify the dump interval (in timesteps)
variable        Nfreq equal 20*${Nrepeat} 
variable        Nfreq equal 20*50 
                                                 #  (Some people call these blocks)
variable        nequil equal 100000             #Equilibration length (in timesteps)
variable        nprod  equal 1000000            #Production length (in timesteps)
variable        nrun equal ${nequil}+${nprod}    #Total run length: equilibration + production (in timesteps)
variable        nrun equal 100000+${nprod}    
variable        nrun equal 100000+1000000    
variable        Tdamp equal 0.500                #Specify the Thermostat damping parameter (in time units ; not timesteps)

#Neighbor List
neighbor        0.3 bin                          #Specify the skin distance (padding beyond the cutoff)
neigh_modify    delay 0 every 20 check no        #Adjust the default neighbor list:
                                                 #  (delay 0)
                                                 #  (every 20)
                                                 #  (check no)

#Ensemble Setup: NVT ensemble, thermostatted by Nose-Hoover a chained thermostat, set at temperature $ext_temp
fix		1 all nvt temp ${ext_temp} ${ext_temp} ${Tdamp}
fix		1 all nvt temp 0.75 ${ext_temp} ${Tdamp}
fix		1 all nvt temp 0.75 0.75 ${Tdamp}
fix		1 all nvt temp 0.75 0.75 0.5
Resetting global fix info from restart file:
  fix style: nvt, fix ID: 1

#Output
variable        PotentialEnergy equal epair         #Call the intermolecular potential energy $PotentialEnergy
variable        Pressure equal press                #Call the pressure $Pressure
variable        Temperature equal temp              #Call the instantaneous temperature $Temperature
fix             2 all ave/time ${Nevery} ${Nrepeat} ${Nfreq} v_Temperature v_PotentialEnergy v_Pressure file out/ave.dens_${rho}_${temp}.out
fix             2 all ave/time 20 ${Nrepeat} ${Nfreq} v_Temperature v_PotentialEnergy v_Pressure file out/ave.dens_${rho}_${temp}.out
fix             2 all ave/time 20 50 ${Nfreq} v_Temperature v_PotentialEnergy v_Pressure file out/ave.dens_${rho}_${temp}.out
fix             2 all ave/time 20 50 1000 v_Temperature v_PotentialEnergy v_Pressure file out/ave.dens_${rho}_${temp}.out
fix             2 all ave/time 20 50 1000 v_Temperature v_PotentialEnergy v_Pressure file out/ave.dens_0.100_${temp}.out
fix             2 all ave/time 20 50 1000 v_Temperature v_PotentialEnergy v_Pressure file out/ave.dens_0.100_0.75.out
thermo          10000                               #Specify the interval between screen output of thermodynamic averages
thermo_style    custom step temp epair press        #Print the timestep, temperature, potential energy, and pressure to screen

#Run it!
run             ${nrun}                          #Run the simulation
run             1100000                          
All restart file global fix info was re-assigned
Neighbor list info ...
  update every 20 steps, delay 0 steps, check no
  max neighbors/atom: 2000, page size: 100000
  master list distance cutoff = 3.8
  ghost atom cutoff = 3.8
  binsize = 1.9, bins = 6 6 6
  1 neighbor lists, perpetual/occasional/extra = 1 0 0
  (1) pair lj/cut, perpetual
      attributes: half, newton on
      pair build: half/bin/atomonly/newton
      stencil: half/bin/3d
      bin: standard
Per MPI rank memory allocation (min/avg/max) = 2.560 | 2.561 | 2.561 Mbytes
Step Temp E_pair Press 
       0    1.7078394  -0.73766002   0.12067266 
   10000   0.75241176   -2.1202178 -0.024855574 
   20000   0.65678034   -2.5764283 -0.0074147157 
   30000   0.65847741   -1.9697933 -0.015182187 
   40000   0.70683984   -2.7476475  0.053163287 
   50000    0.7656869   -2.3837933 -0.023613935 
   60000     0.732782   -2.3027045  0.042917556 
   70000   0.76977349   -2.6420804  0.057337489 
   80000   0.66040602   -2.6798314 -0.0024911167 
   90000   0.76009844   -2.2737078 0.0044614238 
  100000   0.76742009   -2.7244984 0.0095240131 
  110000   0.73343252   -2.2553359 -0.012283421 
  120000   0.81091722   -2.3416572  0.036001677 
  130000   0.69635385   -2.4620782 -0.012729842 
  140000   0.67877353   -2.0297303 -0.019963635 
  150000   0.76278454   -2.2300637  -0.01874934 
  160000   0.72409079   -2.5315024   0.05090126 
  170000   0.74123944   -2.8034825  0.033668667 
  180000   0.81585867   -2.6209253 -0.042571683 
  190000   0.71942594   -2.4116113 -0.0056848358 
  200000   0.67888902   -2.4511713 -0.0088138111 
  210000   0.69061566   -2.7146164  0.046826487 
  220000   0.60624897   -2.1288629 -0.039287716 
  230000    0.8048656   -2.3619266  0.016196259 
  240000   0.80079734    -2.610113  0.054309874 
  250000   0.82841741   -2.5421676  0.013241887 
  260000   0.78761417     -2.88514  0.060394079 
  270000   0.72901882   -2.6307347  0.023596029 
  280000   0.65985212   -2.4483555 -0.017187207 
  290000   0.71769477    -2.548367  0.030282441 
  300000   0.65123376   -2.6288571   0.03828802 
  310000    0.7117953   -2.7291227 -0.0069305454 
  320000   0.74640293   -2.0305344  0.046129996 
  330000   0.72930936   -2.3084197 0.0063698406 
  340000   0.72334001    -2.571959 -0.044044899 
  350000   0.73069017   -2.5254941 -0.084179863 
  360000   0.77882921   -2.4238052  0.018208929 
  370000   0.66336457   -2.4555089 -0.016248033 
  380000   0.70675702   -2.4054379  0.023850752 
  390000   0.64746483   -2.3835862  -0.05584733 
  400000   0.80207381   -2.5289557 -0.0077747323 
  410000   0.85010327   -2.4657236  0.086149844 
  420000   0.83714754   -2.3898034  0.078302847 
  430000   0.74976333   -2.3965742   0.03127629 
  440000   0.76885139    -2.627916 -0.015076054 
  450000   0.74688172   -2.5950265 0.0091842828 
  460000   0.83448442    -2.232692 -0.013959019 
  470000    0.6651504   -2.2399388 0.0043514403 
  480000   0.77190716   -2.2520185 -0.0037629042 
  490000   0.76384797   -2.1227791 0.0071101867 
  500000   0.82651929   -2.4212598  0.079178639 
  510000   0.75733151    -2.403762  0.046451474 
  520000   0.74380592   -2.6812237 -0.022042737 
  530000   0.78465514   -2.3032653  0.014030299 
  540000   0.69720162   -2.5458335 0.0025011155 
  550000    0.8711654   -2.3572928   0.04580602 
  560000   0.73153787   -2.2975489 -0.016295482 
  570000   0.85636417   -2.6872765  0.023193178 
  580000   0.72989066   -2.6539853 -0.036067554 
  590000   0.76567764   -2.2677432  0.076215546 
  600000    0.8293022   -2.0848984  0.021572187 
  610000   0.83250492   -2.1724364 -0.0040653012 
  620000   0.80370873   -2.2955041 -0.0023005263 
  630000   0.69234253   -2.7915397   0.11305053 
  640000   0.79606652   -2.6746307 0.0090201446 
  650000   0.75082179   -2.2178509  0.043723181 
  660000   0.74942512   -2.1727553  0.019585119 
  670000   0.72883268   -2.7722551  0.020089466 
  680000   0.66159968   -2.2892683  0.029546846 
  690000   0.75928072   -2.2194478  0.022477645 
  700000   0.74697068   -1.7822501   0.02026224 
  710000   0.70163929   -2.7267252 -0.0050465849 
  720000    0.7523216   -2.4972085 -0.047069489 
  730000   0.83638934   -2.3423843  0.020426152 
  740000   0.74428667   -2.4628106 -0.0071160212 
  750000   0.72502697   -2.5826542 0.0089067889 
  760000   0.82502655   -2.3426633  0.017951733 
  770000    0.7015111   -2.9356291  0.028968377 
  780000   0.82458501   -2.5166241   0.01158928 
  790000   0.77198017    -2.295246 -0.00071010723 
  800000   0.79847553   -2.6177582  0.052423547 
  810000   0.84486323      -2.4428 -0.020684813 
  820000   0.71505617   -2.1073086 -0.00033944905 
  830000   0.74772701   -2.4991525 -0.021521993 
  840000   0.84603005   -2.5017904  0.031108417 
  850000   0.76236633   -2.4585714  0.067798894 
  860000   0.83111401    -2.538739  0.026596807 
  870000   0.68278439   -2.4767975 -0.051975974 
  880000   0.69691084   -2.7044618  0.035780497 
  890000   0.78136719   -2.2250478  0.064594658 
  900000   0.67955836   -2.6762162  0.052488317 
  910000   0.65532179   -2.3692566 -0.0096092386 
  920000   0.76937487   -2.2979068   0.05074343 
  930000   0.78298623   -2.7077936   0.08093962 
  940000   0.77841887   -2.7922911  0.072233721 
  950000   0.73000421   -2.7284925  0.022235177 
  960000   0.70855882   -2.7411622 -0.057388603 
  970000   0.77381393   -2.4476405  0.045909084 
  980000   0.97302117   -2.6732081 -0.028163643 
  990000   0.78208834   -2.3930778 -0.045292546 
 1000000   0.71633489   -2.1172752  0.047979309 
 1010000   0.72150543   -2.2864149  0.034788936 
 1020000   0.77293187   -2.2909621  0.033295352 
 1030000   0.60712203   -2.7470111 -0.045570705 
 1040000   0.69056602   -2.5530377 -0.022430841 
 1050000   0.79756367   -2.7276074 -0.0033135607 
 1060000   0.72174312   -2.4597131  0.055837461 
 1070000   0.73683271   -2.3776441 -0.022296653 
 1080000   0.77793785   -2.5115171   0.03602941 
 1090000   0.75360394   -2.4824941 -0.0082531574 
 1100000   0.67461486   -2.4008655 0.0023730623 
Loop time of 47.3503 on 8 procs for 1100000 steps with 100 atoms

Performance: 10035832.961 tau/day, 23231.095 timesteps/s
99.7% CPU use with 8 MPI tasks x 1 OpenMP threads

MPI task timing breakdown:
Section |  min time  |  avg time  |  max time  |%varavg| %total
---------------------------------------------------------------
Pair    | 4.1325     | 6.6025     | 8.4511     |  69.0 | 13.94
Neigh   | 0.70129    | 0.87395    | 1.006      |  12.4 |  1.85
Comm    | 32.859     | 34.673     | 37.157     |  29.2 | 73.23
Output  | 0.0027783  | 0.0043829  | 0.015535   |   6.4 |  0.01
Modify  | 4.3208     | 4.6359     | 4.9195     |   8.4 |  9.79
Other   |            | 0.5607     |            |       |  1.18

Nlocal:        12.5000 ave          24 max           4 min
Histogram: 2 0 1 1 0 1 1 1 0 1
Nghost:        173.750 ave         230 max         128 min
Histogram: 2 0 0 2 1 1 0 0 1 1
Neighs:        290.000 ave         928 max           9 min
Histogram: 3 1 2 0 0 0 1 0 0 1

Total # of neighbors = 2320
Ave neighs/atom = 23.200000
Neighbor list builds = 55000
Dangerous builds not checked
Total wall time: 0:00:47
