LAMMPS (14 May 2021)
OMP_NUM_THREADS environment is not set. Defaulting to 1 thread. (src/comm.cpp:98)
  using 1 OpenMP thread(s) per MPI task
# 3D Lennard-Jones NVT

#NOTES:
# The variable "rho" is read from the command line argument:
#  E.G., "lmp_serial -in foo -var rho bar1 -var temp bar2"
#  foo = input filename
#  bar1 = input value for variable rho (density)
#  bar2 = input value for variable temp (temperature)
# The restart file specifies the following:
#   System volume, conformation, periodicity
#   Initial configuration and velocities
#   The molecular model (i.e., pair potential, molecular topology)
# The configuration in the restart file is a relaxed configuration
#   for the temperature at which the configuration was generated (T*=1.50).

read_restart    restart/in.nvt.dens_${rho}               #Specify the LAMMPS restart file
read_restart    restart/in.nvt.dens_0.010               
Reading restart file ...
  restart file = 14 May 2021, LAMMPS = 14 May 2021
  restoring atom style atomic from restart
  orthogonal box = (0.0000000 0.0000000 0.0000000) to (21.544347 21.544347 21.544347)
  2 by 2 by 2 MPI processor grid
  restoring pair style lj/cut from restart
  100 atoms
  read_restart CPU = 0.002 seconds
reset_timestep  0                                #Reset the time step counter to 0

#Run Parameters
variable        ext_temp equal ${temp}           #Specify the Thermostat Temperature
variable        ext_temp equal 1.30           
variable        Nevery equal 20                  #Specify the distance (in timesteps) between samples for computing ensemble averages
                                                 #  (Interval between samples in a block)
variable        Nrepeat equal 50                 #Specify the number of samples per output  of thermodynamic averages
                                                 #  (Samples per block output)
variable        Nfreq equal ${Nevery}*${Nrepeat} #Specify the dump interval (in timesteps)
variable        Nfreq equal 20*${Nrepeat} 
variable        Nfreq equal 20*50 
                                                 #  (Some people call these blocks)
variable        nequil equal 100000             #Equilibration length (in timesteps)
variable        nprod  equal 1000000            #Production length (in timesteps)
variable        nrun equal ${nequil}+${nprod}    #Total run length: equilibration + production (in timesteps)
variable        nrun equal 100000+${nprod}    
variable        nrun equal 100000+1000000    
variable        Tdamp equal 0.500                #Specify the Thermostat damping parameter (in time units ; not timesteps)

#Neighbor List
neighbor        0.3 bin                          #Specify the skin distance (padding beyond the cutoff)
neigh_modify    delay 0 every 20 check no        #Adjust the default neighbor list:
                                                 #  (delay 0)
                                                 #  (every 20)
                                                 #  (check no)

#Ensemble Setup: NVT ensemble, thermostatted by Nose-Hoover a chained thermostat, set at temperature $ext_temp
fix		1 all nvt temp ${ext_temp} ${ext_temp} ${Tdamp}
fix		1 all nvt temp 1.3 ${ext_temp} ${Tdamp}
fix		1 all nvt temp 1.3 1.3 ${Tdamp}
fix		1 all nvt temp 1.3 1.3 0.5
Resetting global fix info from restart file:
  fix style: nvt, fix ID: 1

#Output
variable        PotentialEnergy equal epair         #Call the intermolecular potential energy $PotentialEnergy
variable        Pressure equal press                #Call the pressure $Pressure
variable        Temperature equal temp              #Call the instantaneous temperature $Temperature
fix             2 all ave/time ${Nevery} ${Nrepeat} ${Nfreq} v_Temperature v_PotentialEnergy v_Pressure file out/ave.dens_${rho}_${temp}.out
fix             2 all ave/time 20 ${Nrepeat} ${Nfreq} v_Temperature v_PotentialEnergy v_Pressure file out/ave.dens_${rho}_${temp}.out
fix             2 all ave/time 20 50 ${Nfreq} v_Temperature v_PotentialEnergy v_Pressure file out/ave.dens_${rho}_${temp}.out
fix             2 all ave/time 20 50 1000 v_Temperature v_PotentialEnergy v_Pressure file out/ave.dens_${rho}_${temp}.out
fix             2 all ave/time 20 50 1000 v_Temperature v_PotentialEnergy v_Pressure file out/ave.dens_0.010_${temp}.out
fix             2 all ave/time 20 50 1000 v_Temperature v_PotentialEnergy v_Pressure file out/ave.dens_0.010_1.30.out
thermo          10000                               #Specify the interval between screen output of thermodynamic averages
thermo_style    custom step temp epair press        #Print the timestep, temperature, potential energy, and pressure to screen

#Run it!
run             ${nrun}                          #Run the simulation
run             1100000                          
All restart file global fix info was re-assigned
Neighbor list info ...
  update every 20 steps, delay 0 steps, check no
  max neighbors/atom: 2000, page size: 100000
  master list distance cutoff = 5.3
  ghost atom cutoff = 5.3
  binsize = 2.65, bins = 9 9 9
  1 neighbor lists, perpetual/occasional/extra = 1 0 0
  (1) pair lj/cut, perpetual
      attributes: half, newton on
      pair build: half/bin/atomonly/newton
      stencil: half/bin/3d
      bin: standard
Per MPI rank memory allocation (min/avg/max) = 2.561 | 2.561 | 2.561 Mbytes
Step Temp E_pair Press 
       0    1.6255566 -0.076184669  0.015246603 
   10000    1.4353325  -0.08765531  0.013725157 
   20000    1.2677865 -0.077255589  0.011305333 
   30000    1.1552834 -0.081680258  0.011350601 
   40000    1.1882255 -0.085053337  0.011335561 
   50000    1.1241471 -0.091136635  0.010918393 
   60000    1.3503566  -0.12050075  0.012108432 
   70000    1.2389337 -0.070177563  0.012147546 
   80000    1.1941921 -0.089037206  0.010524127 
   90000    1.2164443 -0.093765101   0.01088551 
  100000    1.2525805 -0.084641624  0.012825488 
  110000    1.3282992 -0.075354842   0.01193562 
  120000    1.5015691 -0.085532859  0.013483927 
  130000    1.2644741 -0.076031776  0.011535004 
  140000      1.27663  -0.13204438  0.011538765 
  150000    1.1439025 -0.054179083  0.010633361 
  160000    1.3958355 -0.097169052  0.012928911 
  170000    1.3386117  -0.11191229  0.012801065 
  180000    1.3814199 -0.082163262   0.01287489 
  190000    1.2785717 -0.095844228  0.012513311 
  200000    1.2761484 -0.060275248  0.012405867 
  210000    1.4511091 -0.074429989  0.014083541 
  220000    1.2476329  -0.09514223  0.011359966 
  230000    1.3624641 -0.097033603  0.012859323 
  240000    1.3469571  -0.14120482  0.013077378 
  250000    1.3691907 -0.080033967  0.013257453 
  260000    1.2957072 -0.087350458   0.01185373 
  270000    1.2331297 -0.061562701  0.011658219 
  280000    1.2930429 -0.086813917  0.011644304 
  290000    1.1937653 -0.083952257  0.010933682 
  300000    1.0423312 -0.072579834 0.0096474622 
  310000    1.4095749 -0.063016539  0.013170389 
  320000    1.1167972  -0.05471459   0.01050049 
  330000    1.4081211 -0.040736021  0.013562329 
  340000    1.2569859  -0.10542077  0.012177296 
  350000    1.2479326 -0.095600635  0.011415106 
  360000     1.316185 -0.096776293  0.012105005 
  370000    1.2275204 -0.069152051   0.01151581 
  380000    1.3479623  -0.11270523  0.013478898 
  390000    1.2335311  -0.07741397  0.012476835 
  400000    1.4636939 -0.051500025  0.014351486 
  410000    1.3224899 -0.062926766  0.012888914 
  420000    1.2866576 -0.090731907  0.012291193 
  430000    1.3026143 -0.053149376  0.012420882 
  440000    1.4335565 -0.068917121  0.013209665 
  450000    1.3882764  0.030816903  0.020219589 
  460000    1.2031809 -0.069639972   0.01100648 
  470000     1.393748 -0.091910054  0.013962648 
  480000    1.5421226 -0.033751607  0.016524308 
  490000    1.1407334 -0.095494386  0.011003529 
  500000    1.2693533  -0.10847737  0.013514163 
  510000    1.2508314  -0.13509799  0.011316519 
  520000    1.2905618  -0.08236989  0.012346851 
  530000    1.1914508 -0.071724338  0.012105326 
  540000     1.145077 -0.090061512  0.010345586 
  550000    1.2500995   -0.0772789  0.013213341 
  560000    1.2916846 -0.061522834    0.0126591 
  570000    1.3584387 -0.078472564  0.012399411 
  580000    1.4515379 -0.081512636  0.014840736 
  590000    1.4299872 -0.058215799  0.013193454 
  600000     1.295273  -0.10955493  0.012297406 
  610000    1.2920951 -0.083266731  0.012965745 
  620000    1.1633219 -0.089301325  0.010242727 
  630000    1.3415765  -0.10530048  0.012469233 
  640000    1.3540965  -0.10651932  0.012569383 
  650000    1.2508443  -0.05333756  0.011537415 
  660000    1.2192172 -0.043112777  0.011339341 
  670000    1.2499859 -0.082481924  0.012244374 
  680000    1.3029018 -0.088142959  0.013383141 
  690000    1.2558504 -0.080492499  0.011427016 
  700000    1.4021802 -0.071472098  0.014471355 
  710000    1.2517617 -0.064771205  0.011326133 
  720000    1.2099197 -0.053402801  0.011729845 
  730000    1.3360142 -0.054599798  0.012643582 
  740000    1.2816061 -0.034461926  0.013510904 
  750000    1.4721105 -0.073505556  0.013421736 
  760000    1.1708382 -0.083984413  0.010587434 
  770000    1.4966597 -0.075073848  0.014703051 
  780000    1.1416507 -0.092292815  0.010904602 
  790000    1.3607054  -0.10481506  0.011974758 
  800000    1.2386662 -0.076925186  0.011495857 
  810000     1.302911  -0.06381531  0.014551342 
  820000    1.4232256 -0.075328895  0.013863796 
  830000     1.402976 -0.076132659  0.013025018 
  840000    1.3004229 -0.070123496  0.012854845 
  850000    1.2702084 -0.076864706  0.011764853 
  860000    1.2500794 -0.082716729  0.011186107 
  870000    1.1848383  -0.08480868  0.010638308 
  880000    1.4551569 -0.086564382  0.014274294 
  890000    1.4326279  -0.04349459  0.013828176 
  900000      1.25553 -0.070351674  0.011466159 
  910000     1.250889 -0.093159947  0.011668386 
  920000    1.1989645 -0.093279572  0.011475467 
  930000    1.2481214 -0.090238025  0.011586572 
  940000    1.4255619 -0.083073567  0.013962456 
  950000    1.1943562 -0.055496931  0.010863535 
  960000    1.1711882 -0.065924727  0.011947941 
  970000    1.2800706  -0.12815151  0.012179812 
  980000    1.1661666 -0.074205741  0.010640773 
  990000    1.3193247 -0.081621946   0.01182836 
 1000000    1.4367515 -0.090717505   0.01383974 
 1010000     1.367334 -0.057461377  0.013061978 
 1020000    1.2982644 -0.055840617  0.012014826 
 1030000    1.2548541 -0.054345924  0.013976061 
 1040000    1.4212311  -0.10489051  0.013129426 
 1050000    1.3065612 -0.062695892  0.013853132 
 1060000    1.2631614  -0.12997016  0.011961887 
 1070000     1.268342  -0.10164692  0.012940489 
 1080000    1.1537066  -0.10133705  0.011543327 
 1090000    1.2885913 -0.071873155  0.011682234 
 1100000    1.2360872 -0.099894417  0.011291185 
Loop time of 20.0675 on 8 procs for 1100000 steps with 100 atoms

Performance: 23680087.250 tau/day, 54815.017 timesteps/s
99.8% CPU use with 8 MPI tasks x 1 OpenMP threads

MPI task timing breakdown:
Section |  min time  |  avg time  |  max time  |%varavg| %total
---------------------------------------------------------------
Pair    | 1.11       | 1.1315     | 1.1571     |   1.6 |  5.64
Neigh   | 0.50614    | 0.51464    | 0.52637    |   1.1 |  2.56
Comm    | 14.204     | 14.256     | 14.316     |   0.9 | 71.04
Output  | 0.0026818  | 0.004112   | 0.014064   |   5.9 |  0.02
Modify  | 3.6834     | 3.7218     | 3.7862     |   1.5 | 18.55
Other   |            | 0.4393     |            |       |  2.19

Nlocal:        12.5000 ave          17 max           9 min
Histogram: 1 0 2 2 0 1 0 1 0 1
Nghost:        85.5000 ave          88 max          82 min
Histogram: 1 0 0 2 0 2 0 0 0 3
Neighs:        38.6250 ave          61 max          23 min
Histogram: 1 1 0 2 2 1 0 0 0 1

Total # of neighbors = 309
Ave neighs/atom = 3.0900000
Neighbor list builds = 55000
Dangerous builds not checked
Total wall time: 0:00:20
