LAMMPS (14 May 2021)
OMP_NUM_THREADS environment is not set. Defaulting to 1 thread. (src/comm.cpp:98)
  using 1 OpenMP thread(s) per MPI task
# 3D Lennard-Jones NVT

#NOTES:
# The variable "rho" is read from the command line argument:
#  E.G., "lmp_serial -in foo -var rho bar1 -var temp bar2"
#  foo = input filename
#  bar1 = input value for variable rho (density)
#  bar2 = input value for variable temp (temperature)
# The restart file specifies the following:
#   System volume, conformation, periodicity
#   Initial configuration and velocities
#   The molecular model (i.e., pair potential, molecular topology)
# The configuration in the restart file is a relaxed configuration
#   for the temperature at which the configuration was generated (T*=1.50).

read_restart    restart/in.nvt.dens_${rho}               #Specify the LAMMPS restart file
read_restart    restart/in.nvt.dens_0.010               
Reading restart file ...
  restart file = 14 May 2021, LAMMPS = 14 May 2021
  restoring atom style atomic from restart
  orthogonal box = (0.0000000 0.0000000 0.0000000) to (21.544347 21.544347 21.544347)
  2 by 2 by 2 MPI processor grid
  restoring pair style lj/cut from restart
  100 atoms
  read_restart CPU = 0.002 seconds
reset_timestep  0                                #Reset the time step counter to 0

#Run Parameters
variable        ext_temp equal ${temp}           #Specify the Thermostat Temperature
variable        ext_temp equal 1.80           
variable        Nevery equal 20                  #Specify the distance (in timesteps) between samples for computing ensemble averages
                                                 #  (Interval between samples in a block)
variable        Nrepeat equal 50                 #Specify the number of samples per output  of thermodynamic averages
                                                 #  (Samples per block output)
variable        Nfreq equal ${Nevery}*${Nrepeat} #Specify the dump interval (in timesteps)
variable        Nfreq equal 20*${Nrepeat} 
variable        Nfreq equal 20*50 
                                                 #  (Some people call these blocks)
variable        nequil equal 100000             #Equilibration length (in timesteps)
variable        nprod  equal 1000000            #Production length (in timesteps)
variable        nrun equal ${nequil}+${nprod}    #Total run length: equilibration + production (in timesteps)
variable        nrun equal 100000+${nprod}    
variable        nrun equal 100000+1000000    
variable        Tdamp equal 0.500                #Specify the Thermostat damping parameter (in time units ; not timesteps)

#Neighbor List
neighbor        0.3 bin                          #Specify the skin distance (padding beyond the cutoff)
neigh_modify    delay 0 every 20 check no        #Adjust the default neighbor list:
                                                 #  (delay 0)
                                                 #  (every 20)
                                                 #  (check no)

#Ensemble Setup: NVT ensemble, thermostatted by Nose-Hoover a chained thermostat, set at temperature $ext_temp
fix		1 all nvt temp ${ext_temp} ${ext_temp} ${Tdamp}
fix		1 all nvt temp 1.8 ${ext_temp} ${Tdamp}
fix		1 all nvt temp 1.8 1.8 ${Tdamp}
fix		1 all nvt temp 1.8 1.8 0.5
Resetting global fix info from restart file:
  fix style: nvt, fix ID: 1

#Output
variable        PotentialEnergy equal epair         #Call the intermolecular potential energy $PotentialEnergy
variable        Pressure equal press                #Call the pressure $Pressure
variable        Temperature equal temp              #Call the instantaneous temperature $Temperature
fix             2 all ave/time ${Nevery} ${Nrepeat} ${Nfreq} v_Temperature v_PotentialEnergy v_Pressure file out/ave.dens_${rho}_${temp}.out
fix             2 all ave/time 20 ${Nrepeat} ${Nfreq} v_Temperature v_PotentialEnergy v_Pressure file out/ave.dens_${rho}_${temp}.out
fix             2 all ave/time 20 50 ${Nfreq} v_Temperature v_PotentialEnergy v_Pressure file out/ave.dens_${rho}_${temp}.out
fix             2 all ave/time 20 50 1000 v_Temperature v_PotentialEnergy v_Pressure file out/ave.dens_${rho}_${temp}.out
fix             2 all ave/time 20 50 1000 v_Temperature v_PotentialEnergy v_Pressure file out/ave.dens_0.010_${temp}.out
fix             2 all ave/time 20 50 1000 v_Temperature v_PotentialEnergy v_Pressure file out/ave.dens_0.010_1.80.out
thermo          10000                               #Specify the interval between screen output of thermodynamic averages
thermo_style    custom step temp epair press        #Print the timestep, temperature, potential energy, and pressure to screen

#Run it!
run             ${nrun}                          #Run the simulation
run             1100000                          
All restart file global fix info was re-assigned
Neighbor list info ...
  update every 20 steps, delay 0 steps, check no
  max neighbors/atom: 2000, page size: 100000
  master list distance cutoff = 5.3
  ghost atom cutoff = 5.3
  binsize = 2.65, bins = 9 9 9
  1 neighbor lists, perpetual/occasional/extra = 1 0 0
  (1) pair lj/cut, perpetual
      attributes: half, newton on
      pair build: half/bin/atomonly/newton
      stencil: half/bin/3d
      bin: standard
Per MPI rank memory allocation (min/avg/max) = 2.561 | 2.561 | 2.561 Mbytes
Step Temp E_pair Press 
       0    1.6255566 -0.076184669  0.015246603 
   10000    1.7655982 -0.017566071  0.019024821 
   20000    1.5968862 -0.070783415  0.016243331 
   30000     1.891568 -0.047646609    0.0178666 
   40000    1.8070211 -0.066495099  0.017184889 
   50000    1.7781645 -0.092751259  0.016743536 
   60000    1.8902948 -0.047599802   0.01802694 
   70000     1.674845  -0.10940371   0.01501542 
   80000    1.9683111 -0.085238875  0.019175154 
   90000    1.8201758  -0.07481164  0.017741519 
  100000    2.2435439   -0.1211254  0.021769846 
  110000    1.9231896 -0.066988802  0.018761327 
  120000    1.9083561 -0.062624079  0.018898722 
  130000    1.9132897 -0.088205606  0.018431867 
  140000    1.8491904  -0.10419253  0.017387079 
  150000    1.7464064 -0.078164415  0.016480925 
  160000    1.8137653 -0.065673817  0.017889597 
  170000    1.9307569 -0.068264415  0.019231735 
  180000    1.7726712 -0.087463156  0.017832211 
  190000    1.7412443    -0.108918   0.01612473 
  200000    1.8623003 -0.050794788   0.01778597 
  210000     1.714392 -0.085778332  0.016337796 
  220000    1.6728513 -0.076385657  0.015761693 
  230000    1.8061156 -0.084122176  0.016969257 
  240000    1.7420254 -0.049266461  0.017233561 
  250000    1.5786819 -0.072012359  0.014745048 
  260000    1.7946564 -0.052104426  0.016951375 
  270000    1.6897694  -0.09903376   0.01596294 
  280000    1.9233319  -0.11441949  0.018813931 
  290000    1.9521474 -0.075708766  0.018994568 
  300000    1.9327793 -0.068337796  0.018356622 
  310000    1.7006058 -0.092183881  0.015896124 
  320000    1.7828987 -0.048689971  0.017097024 
  330000    1.5912536 -0.025353325  0.015267331 
  340000    1.7778577 -0.044900335  0.016976873 
  350000    1.8177209 -0.068652609  0.017095596 
  360000     1.697242 -0.042167161  0.018687022 
  370000    1.7353287 -0.046876922  0.019094416 
  380000    1.7583833 -0.080857012  0.017263264 
  390000    1.8126801 -0.056040438  0.017529674 
  400000    2.0389001 -0.066496766  0.019946787 
  410000    2.0239542 -0.097413758  0.019465519 
  420000    1.9318633 -0.078954808  0.018138814 
  430000    1.9965428 -0.091065769  0.019187671 
  440000    1.6536973 -0.062600107  0.015975898 
  450000    2.1616252 -0.034586163  0.024556822 
  460000    2.0217111  -0.11852352  0.018918653 
  470000    2.1556222 -0.054468058  0.020807716 
  480000     1.748359 -0.038921775  0.016961493 
  490000    1.6622903 -0.071713533  0.015588201 
  500000    1.7570311 -0.057333308  0.019168925 
  510000    1.6627109 -0.084450942  0.015662468 
  520000    1.7089634 -0.052492359  0.016276956 
  530000    1.7981802 -0.092234782  0.016386585 
  540000    1.8408552 -0.058070382  0.017681429 
  550000    1.9655807 -0.059290382  0.020675847 
  560000    1.6656296 -0.062779671   0.01675961 
  570000    1.5634343 -0.060417899  0.015261418 
  580000     2.015123   -0.0850708  0.019373553 
  590000    1.6338374 -0.064527228  0.016061679 
  600000    1.7340673 -0.078282325  0.016709499 
  610000    1.6169958 -0.060480688  0.016258695 
  620000    1.8353111 -0.077463044  0.017595389 
  630000    1.7175548 -0.068254524  0.017108234 
  640000    1.8189876 -0.081523951  0.018453428 
  650000    1.9655594 -0.029172943  0.018919559 
  660000    1.5465854 -0.057439405  0.016317825 
  670000    1.9662932 -0.064949827  0.018645659 
  680000    1.5631226 -0.069905931  0.014847692 
  690000     1.974394 -0.049953962  0.019071991 
  700000    1.8502761 -0.046635983  0.017624941 
  710000    1.8676573  -0.11152868  0.017640469 
  720000    1.9589794 -0.070433906  0.018570137 
  730000    1.9397733 -0.075613383  0.018616167 
  740000    1.7906942 -0.072436959  0.017522675 
  750000    1.9594352  -0.06868851  0.018603569 
  760000    1.7194128 -0.063024694  0.016105483 
  770000    1.9898162  -0.10049064  0.018625821 
  780000    1.9620468 -0.028897479  0.019658056 
  790000    1.9643398 -0.073630892   0.01999812 
  800000    1.7785888 -0.058270054  0.016830836 
  810000    1.6247633 -0.034386811  0.015509929 
  820000    1.8404771 -0.082830527  0.018297599 
  830000     1.852851  -0.07458903  0.017367245 
  840000    1.8161958 -0.077742561  0.017149441 
  850000    1.6708488 -0.089013959  0.015553726 
  860000    1.7866837  -0.05455142  0.016822912 
  870000     2.011127 -0.043662806  0.019825697 
  880000     1.535434  -0.07272109  0.015137109 
  890000    1.7558925 -0.041461411  0.019775262 
  900000     1.684171 -0.038410357  0.016070435 
  910000    1.5349716 -0.089037384  0.015997834 
  920000    1.6476059 -0.089597655  0.016413504 
  930000    1.7195938 -0.041139913  0.016440954 
  940000    1.5796178 -0.065582269  0.014541334 
  950000    1.8174066  -0.10088057  0.018170727 
  960000    1.7896055  -0.06616774  0.017477115 
  970000    1.6580231 -0.092330459  0.017404706 
  980000    1.7978898 -0.029975451  0.017309515 
  990000    1.9834584 -0.059038074   0.01961312 
 1000000    1.8950877 -0.094057298  0.017972641 
 1010000    1.9907285 -0.064698724  0.019641783 
 1020000    1.7726391 -0.041419253  0.020023604 
 1030000    1.7220816 -0.038634119  0.016403416 
 1040000    1.9218719  -0.11628843  0.019527649 
 1050000    1.5335314 -0.091236549  0.014880092 
 1060000    2.0366701 -0.080557367  0.019590184 
 1070000    1.6490982 -0.088978701  0.015369902 
 1080000    1.6921519 -0.083207832  0.018389435 
 1090000    1.5631934 -0.060853171  0.015330232 
 1100000    1.8496163  -0.10373459  0.018523512 
Loop time of 20.1852 on 8 procs for 1100000 steps with 100 atoms

Performance: 23541972.952 tau/day, 54495.308 timesteps/s
99.8% CPU use with 8 MPI tasks x 1 OpenMP threads

MPI task timing breakdown:
Section |  min time  |  avg time  |  max time  |%varavg| %total
---------------------------------------------------------------
Pair    | 1.1064     | 1.1317     | 1.1572     |   1.5 |  5.61
Neigh   | 0.50358    | 0.51514    | 0.52948    |   1.0 |  2.55
Comm    | 14.179     | 14.353     | 14.435     |   2.3 | 71.11
Output  | 0.012566   | 0.02018    | 0.021285   |   2.0 |  0.10
Modify  | 3.6386     | 3.7236     | 3.8709     |   4.2 | 18.45
Other   |            | 0.4414     |            |       |  2.19

Nlocal:        12.5000 ave          17 max           6 min
Histogram: 2 1 0 0 0 0 0 1 1 3
Nghost:        84.5000 ave          92 max          80 min
Histogram: 3 2 0 0 0 0 0 1 1 1
Neighs:        37.7500 ave          56 max          16 min
Histogram: 2 0 1 0 0 0 0 3 1 1

Total # of neighbors = 302
Ave neighs/atom = 3.0200000
Neighbor list builds = 55000
Dangerous builds not checked
Total wall time: 0:00:20
