LAMMPS (14 May 2021)
OMP_NUM_THREADS environment is not set. Defaulting to 1 thread. (src/comm.cpp:98)
  using 1 OpenMP thread(s) per MPI task
# 3D Lennard-Jones NVT

#NOTES:
# The variable "rho" is read from the command line argument:
#  E.G., "lmp_serial -in foo -var rho bar1 -var temp bar2"
#  foo = input filename
#  bar1 = input value for variable rho (density)
#  bar2 = input value for variable temp (temperature)
# The restart file specifies the following:
#   System volume, conformation, periodicity
#   Initial configuration and velocities
#   The molecular model (i.e., pair potential, molecular topology)
# The configuration in the restart file is a relaxed configuration
#   for the temperature at which the configuration was generated (T*=1.50).

read_restart    restart/in.nvt.dens_${rho}               #Specify the LAMMPS restart file
read_restart    restart/in.nvt.dens_0.001               
Reading restart file ...
  restart file = 14 May 2021, LAMMPS = 14 May 2021
  restoring atom style atomic from restart
  orthogonal box = (0.0000000 0.0000000 0.0000000) to (46.415888 46.415888 46.415888)
  2 by 2 by 2 MPI processor grid
  restoring pair style lj/cut from restart
  100 atoms
  read_restart CPU = 0.002 seconds
reset_timestep  0                                #Reset the time step counter to 0

#Run Parameters
variable        ext_temp equal ${temp}           #Specify the Thermostat Temperature
variable        ext_temp equal 1.20           
variable        Nevery equal 20                  #Specify the distance (in timesteps) between samples for computing ensemble averages
                                                 #  (Interval between samples in a block)
variable        Nrepeat equal 50                 #Specify the number of samples per output  of thermodynamic averages
                                                 #  (Samples per block output)
variable        Nfreq equal ${Nevery}*${Nrepeat} #Specify the dump interval (in timesteps)
variable        Nfreq equal 20*${Nrepeat} 
variable        Nfreq equal 20*50 
                                                 #  (Some people call these blocks)
variable        nequil equal 100000             #Equilibration length (in timesteps)
variable        nprod  equal 1000000            #Production length (in timesteps)
variable        nrun equal ${nequil}+${nprod}    #Total run length: equilibration + production (in timesteps)
variable        nrun equal 100000+${nprod}    
variable        nrun equal 100000+1000000    
variable        Tdamp equal 0.500                #Specify the Thermostat damping parameter (in time units ; not timesteps)

#Neighbor List
neighbor        0.3 bin                          #Specify the skin distance (padding beyond the cutoff)
neigh_modify    delay 0 every 20 check no        #Adjust the default neighbor list:
                                                 #  (delay 0)
                                                 #  (every 20)
                                                 #  (check no)

#Ensemble Setup: NVT ensemble, thermostatted by Nose-Hoover a chained thermostat, set at temperature $ext_temp
fix		1 all nvt temp ${ext_temp} ${ext_temp} ${Tdamp}
fix		1 all nvt temp 1.2 ${ext_temp} ${Tdamp}
fix		1 all nvt temp 1.2 1.2 ${Tdamp}
fix		1 all nvt temp 1.2 1.2 0.5
Resetting global fix info from restart file:
  fix style: nvt, fix ID: 1

#Output
variable        PotentialEnergy equal epair         #Call the intermolecular potential energy $PotentialEnergy
variable        Pressure equal press                #Call the pressure $Pressure
variable        Temperature equal temp              #Call the instantaneous temperature $Temperature
fix             2 all ave/time ${Nevery} ${Nrepeat} ${Nfreq} v_Temperature v_PotentialEnergy v_Pressure file out/ave.dens_${rho}_${temp}.out
fix             2 all ave/time 20 ${Nrepeat} ${Nfreq} v_Temperature v_PotentialEnergy v_Pressure file out/ave.dens_${rho}_${temp}.out
fix             2 all ave/time 20 50 ${Nfreq} v_Temperature v_PotentialEnergy v_Pressure file out/ave.dens_${rho}_${temp}.out
fix             2 all ave/time 20 50 1000 v_Temperature v_PotentialEnergy v_Pressure file out/ave.dens_${rho}_${temp}.out
fix             2 all ave/time 20 50 1000 v_Temperature v_PotentialEnergy v_Pressure file out/ave.dens_0.001_${temp}.out
fix             2 all ave/time 20 50 1000 v_Temperature v_PotentialEnergy v_Pressure file out/ave.dens_0.001_1.20.out
thermo          10000                               #Specify the interval between screen output of thermodynamic averages
thermo_style    custom step temp epair press        #Print the timestep, temperature, potential energy, and pressure to screen

#Run it!
run             ${nrun}                          #Run the simulation
run             1100000                          
All restart file global fix info was re-assigned
Neighbor list info ...
  update every 20 steps, delay 0 steps, check no
  max neighbors/atom: 2000, page size: 100000
  master list distance cutoff = 2.8
  ghost atom cutoff = 2.8
  binsize = 1.4, bins = 34 34 34
  1 neighbor lists, perpetual/occasional/extra = 1 0 0
  (1) pair lj/cut, perpetual
      attributes: half, newton on
      pair build: half/bin/atomonly/newton
      stencil: half/bin/3d
      bin: standard
Per MPI rank memory allocation (min/avg/max) = 2.603 | 2.603 | 2.603 Mbytes
Step Temp E_pair Press 
       0      1.21292 -0.0031198233 0.0011946977 
   10000    1.2539409 -0.0043185332  0.001300438 
   20000    1.2815502 -0.008050058 0.0012545857 
   30000    1.1099177 -0.011930205 0.0010851969 
   40000    1.0607952 -0.0048356439 0.0010411944 
   50000    1.2248375 -0.0016957834 0.0012092941 
   60000    1.2101976 -0.0064176948 0.0011862099 
   70000    1.0263143 -0.0071098724 0.0010045828 
   80000    1.0652963 -0.0081252614 0.0010399868 
   90000    1.0000689 -0.0080566426 0.00097828788 
  100000    1.1030269 -0.008837403  0.001081788 
  110000    1.2938136 -0.0098172533 0.0012644158 
  120000    1.2187781 -0.0048651926 0.0011971919 
  130000    1.2891411 -0.0019695289 0.0012724123 
  140000    1.2320342 -0.029610817 0.0012156024 
  150000   0.98685682 -0.00072756507 0.0009755606 
  160000    1.1046676            0  0.001093621 
  170000    1.0722537 -0.003401924 0.0010549493 
  180000    1.1570656 -0.0018239516 0.0011419808 
  190000    1.2580138 -0.0014996856 0.0012424849 
  200000    1.3306428 -0.020131481 0.0013627525 
  210000    1.2539017 -0.015391174 0.0012282864 
  220000    1.4269391 -0.00082292803 0.0014110414 
  230000    1.0731987 -0.0027973892 0.0010570495 
  240000    1.2613881 -0.013501838  0.001242981 
  250000    1.1929933 -0.0027039713 0.0011757839 
  260000    1.2439229 -0.011868862 0.0012359573 
  270000    1.1832206            0 0.0011713884 
  280000    1.1464709 -0.0049504614 0.0011254151 
  290000    1.1339181 -0.026041963 0.0011047794 
  300000    1.2026767 -0.0048250413 0.0011825749 
  310000    1.2070187            0 0.0011949485 
  320000    1.1082974 -0.0015039957 0.0010943023 
  330000    1.3833981 -0.0018355283 0.0013659827 
  340000    1.1936639 -0.010850036 0.0011854384 
  350000    1.2857333 -0.0022628345 0.0012684683 
  360000    1.3479411 -0.0017792245 0.0013310128 
  370000    1.2261538 -0.0044199278 0.0012057909 
  380000    1.1375556 -0.0074447495 0.0011153074 
  390000    1.1887193 -0.014498314 0.0011555755 
  400000    1.1483244 -0.010448124 0.0011235419 
  410000      1.16658  -0.01091281 0.0011401481 
  420000    1.3296737 -0.0096798397 0.0013105004 
  430000    1.4516982 -0.0019094359 0.0014334325 
  440000    1.2134017 -0.00076568629 0.0011997464 
  450000    1.2000313 -0.0023669255 0.0011834597 
  460000    1.2091132 -0.00086228486 0.0011953101 
  470000   0.97658131 -0.0058021792 0.00095676266 
  480000    1.2834073 -0.005854653 0.0012594958 
  490000    1.3473135 -0.0019455381 0.0013300029 
  500000    1.0045856 -0.012575143 0.00098527487 
  510000    1.2613932 -0.0091390804 0.0013131112 
  520000    1.2617018 -0.0074150311 0.0012356302 
  530000    1.2469895            0 0.0012345196 
  540000    1.0729632 -0.0058888214 0.0010512642 
  550000   0.91621024 -0.0019618285 0.00090321884 
  560000    1.2922061 -0.017585416 0.0012537179 
  570000    1.2356552 -0.024252112 0.0012015911 
  580000    1.0254093 -0.0072455278 0.0010040758 
  590000    1.1435479 -0.0088978177 0.0011875784 
  600000    1.2672294 -0.0026840068 0.0012493336 
  610000    1.3175362 -0.0074384631 0.0013469047 
  620000    1.1159534 -0.0080952558 0.0010913955 
  630000    1.1564596 -0.0098407146 0.0011281401 
  640000    1.2888158 -0.0045510436 0.0012678788 
  650000    1.2097053 -0.0091876212 0.0011825435 
  660000    1.2608206 -0.0077646282 0.0012880736 
  670000    1.1778212 -0.00082981466 0.0011644193 
  680000    1.1273127 -0.00068947649  0.001114669 
  690000    1.1788071 -0.00087783744 0.0011652851 
  700000    1.1616093 -0.0023022862 0.0011455377 
  710000    1.1119917 -0.00047633625  0.001099925 
  720000    1.1953112 -0.011410631 0.0012264864 
  730000    1.3221903 -0.0015917575 0.0013058682 
  740000    1.2249996 -0.00040922257 0.0012119354 
  750000    1.2454576 -0.0026003435    0.0012279 
  760000     1.498127 -0.0099313619 0.0014690865 
  770000    1.1693149 -0.0063807804 0.0011476483 
  780000    1.2709541 -0.014547393 0.0012551709 
  790000    1.0331036 -0.023575962 0.0009860598 
  800000    1.1287297 -0.010054773 0.0011045094 
  810000    1.2210721 -0.017804539 0.0011820792 
  820000    1.3731143 -0.00082723366 0.0013577644 
  830000    1.2167856 -0.0031737662 0.0011986664 
  840000    1.3128316 -0.010031027 0.0012821668 
  850000    1.2845774 -0.0012024264 0.0012693458 
  860000    1.2032189 -0.006936567 0.0011791216 
  870000    1.2224496 -0.003728212 0.0012032967 
  880000    1.2801941 -0.015169037 0.0013317776 
  890000    1.2475505 -0.0027895463 0.0012299511 
  900000    1.2554214 -0.0009071948 0.0012410778 
  910000    1.2025519 -0.011216634 0.0011837525 
  920000     1.276426 -0.0046132704 0.0012547884 
  930000    1.0676963 -0.0020396257 0.0010529771 
  940000    1.1531398 -0.00081491202 0.0011400132 
  950000    1.1642084 -0.0023197678 0.0011480689 
  960000    1.2344645 -0.012672503 0.0012349198 
  970000    1.1844357 -0.0080114301   0.00116141 
  980000    1.2590207 -0.0010050211 0.0012444445 
  990000     1.156667  -0.01132767 0.0011406832 
 1000000    1.3762709 -0.0085534221 0.0013471701 
 1010000    1.1538529 -0.019570622 0.0011335653 
 1020000    1.3565052 -0.012516797 0.0013248209 
 1030000    1.2192432 -0.00093597713 0.0012052248 
 1040000    1.2611421 -0.0083771435 0.0012798386 
 1050000    1.1492111 -0.003400417 0.0011313855 
 1060000    1.0294647 -0.0010737113 0.0010170389 
 1070000    1.2418148 -0.0091397694 0.0012166485 
 1080000     1.044858 -0.0001974242 0.0010340165 
 1090000    1.1944914 -0.0090502163 0.0011740182 
 1100000    1.2303929 -0.006937995 0.0012082029 
Loop time of 13.4152 on 8 procs for 1100000 steps with 100 atoms

Performance: 35422506.907 tau/day, 81996.544 timesteps/s
99.7% CPU use with 8 MPI tasks x 1 OpenMP threads

MPI task timing breakdown:
Section |  min time  |  avg time  |  max time  |%varavg| %total
---------------------------------------------------------------
Pair    | 0.19489    | 0.20542    | 0.21879    |   1.8 |  1.53
Neigh   | 0.67991    | 0.6907     | 0.72445    |   1.6 |  5.15
Comm    | 8.2        | 8.321      | 8.4491     |   2.5 | 62.03
Output  | 0.0027261  | 0.0031863  | 0.0063428  |   2.1 |  0.02
Modify  | 3.7192     | 3.8274     | 3.9365     |   3.3 | 28.53
Other   |            | 0.3675     |            |       |  2.74

Nlocal:        12.5000 ave          16 max           8 min
Histogram: 1 1 0 1 0 1 1 0 1 2
Nghost:        11.5000 ave          16 max           6 min
Histogram: 1 0 0 1 0 2 0 3 0 1
Neighs:       0.375000 ave           1 max           0 min
Histogram: 5 0 0 0 0 0 0 0 0 3

Total # of neighbors = 3
Ave neighs/atom = 0.030000000
Neighbor list builds = 55000
Dangerous builds not checked
Total wall time: 0:00:13
