LAMMPS (14 May 2021)
OMP_NUM_THREADS environment is not set. Defaulting to 1 thread. (src/comm.cpp:98)
  using 1 OpenMP thread(s) per MPI task
# 3D Lennard-Jones NVT

#NOTES:
# The variable "rho" is read from the command line argument:
#  E.G., "lmp_serial -in foo -var rho bar1 -var temp bar2"
#  foo = input filename
#  bar1 = input value for variable rho (density)
#  bar2 = input value for variable temp (temperature)
# The restart file specifies the following:
#   System volume, conformation, periodicity
#   Initial configuration and velocities
#   The molecular model (i.e., pair potential, molecular topology)
# The configuration in the restart file is a relaxed configuration
#   for the temperature at which the configuration was generated (T*=1.50).

read_restart    restart/in.nvt.dens_${rho}               #Specify the LAMMPS restart file
read_restart    restart/in.nvt.dens_0.010               
Reading restart file ...
  restart file = 14 May 2021, LAMMPS = 14 May 2021
  restoring atom style atomic from restart
  orthogonal box = (0.0000000 0.0000000 0.0000000) to (21.544347 21.544347 21.544347)
  2 by 2 by 2 MPI processor grid
  restoring pair style lj/cut from restart
  100 atoms
  read_restart CPU = 0.002 seconds
reset_timestep  0                                #Reset the time step counter to 0

#Run Parameters
variable        ext_temp equal ${temp}           #Specify the Thermostat Temperature
variable        ext_temp equal 4.00           
variable        Nevery equal 20                  #Specify the distance (in timesteps) between samples for computing ensemble averages
                                                 #  (Interval between samples in a block)
variable        Nrepeat equal 50                 #Specify the number of samples per output  of thermodynamic averages
                                                 #  (Samples per block output)
variable        Nfreq equal ${Nevery}*${Nrepeat} #Specify the dump interval (in timesteps)
variable        Nfreq equal 20*${Nrepeat} 
variable        Nfreq equal 20*50 
                                                 #  (Some people call these blocks)
variable        nequil equal 100000             #Equilibration length (in timesteps)
variable        nprod  equal 1000000            #Production length (in timesteps)
variable        nrun equal ${nequil}+${nprod}    #Total run length: equilibration + production (in timesteps)
variable        nrun equal 100000+${nprod}    
variable        nrun equal 100000+1000000    
variable        Tdamp equal 0.500                #Specify the Thermostat damping parameter (in time units ; not timesteps)

#Neighbor List
neighbor        0.3 bin                          #Specify the skin distance (padding beyond the cutoff)
neigh_modify    delay 0 every 20 check no        #Adjust the default neighbor list:
                                                 #  (delay 0)
                                                 #  (every 20)
                                                 #  (check no)

#Ensemble Setup: NVT ensemble, thermostatted by Nose-Hoover a chained thermostat, set at temperature $ext_temp
fix		1 all nvt temp ${ext_temp} ${ext_temp} ${Tdamp}
fix		1 all nvt temp 4 ${ext_temp} ${Tdamp}
fix		1 all nvt temp 4 4 ${Tdamp}
fix		1 all nvt temp 4 4 0.5
Resetting global fix info from restart file:
  fix style: nvt, fix ID: 1

#Output
variable        PotentialEnergy equal epair         #Call the intermolecular potential energy $PotentialEnergy
variable        Pressure equal press                #Call the pressure $Pressure
variable        Temperature equal temp              #Call the instantaneous temperature $Temperature
fix             2 all ave/time ${Nevery} ${Nrepeat} ${Nfreq} v_Temperature v_PotentialEnergy v_Pressure file out/ave.dens_${rho}_${temp}.out
fix             2 all ave/time 20 ${Nrepeat} ${Nfreq} v_Temperature v_PotentialEnergy v_Pressure file out/ave.dens_${rho}_${temp}.out
fix             2 all ave/time 20 50 ${Nfreq} v_Temperature v_PotentialEnergy v_Pressure file out/ave.dens_${rho}_${temp}.out
fix             2 all ave/time 20 50 1000 v_Temperature v_PotentialEnergy v_Pressure file out/ave.dens_${rho}_${temp}.out
fix             2 all ave/time 20 50 1000 v_Temperature v_PotentialEnergy v_Pressure file out/ave.dens_0.010_${temp}.out
fix             2 all ave/time 20 50 1000 v_Temperature v_PotentialEnergy v_Pressure file out/ave.dens_0.010_4.00.out
thermo          10000                               #Specify the interval between screen output of thermodynamic averages
thermo_style    custom step temp epair press        #Print the timestep, temperature, potential energy, and pressure to screen

#Run it!
run             ${nrun}                          #Run the simulation
run             1100000                          
All restart file global fix info was re-assigned
Neighbor list info ...
  update every 20 steps, delay 0 steps, check no
  max neighbors/atom: 2000, page size: 100000
  master list distance cutoff = 2.8
  ghost atom cutoff = 2.8
  binsize = 1.4, bins = 16 16 16
  1 neighbor lists, perpetual/occasional/extra = 1 0 0
  (1) pair lj/cut, perpetual
      attributes: half, newton on
      pair build: half/bin/atomonly/newton
      stencil: half/bin/3d
      bin: standard
Per MPI rank memory allocation (min/avg/max) = 2.567 | 2.567 | 2.567 Mbytes
Step Temp E_pair Press 
       0    1.5710881 -0.070328339  0.015104189 
   10000    4.3582928 -0.055491101  0.042988526 
   20000    3.3478958 -0.041668159  0.034213601 
   30000    3.7356045 -0.045690589  0.037917114 
   40000    4.6638102  -0.07897018  0.045189147 
   50000    4.5168392 0.0047470618   0.04835485 
   60000    4.0622763 -0.0024188754  0.043338434 
   70000    4.0594466 -0.046036126  0.039643961 
   80000     4.053401 -0.047758571  0.040493303 
   90000    4.0450684 -0.072088455  0.040042046 
  100000      3.87376 -0.029617332  0.038577751 
  110000     3.798141 -0.047689291  0.038741291 
  120000    4.4622107 -0.057652839  0.043336096 
  130000    4.2089992 -0.062500098  0.041048788 
  140000    4.2575503 -0.054456733  0.043450565 
  150000    3.7155835 -0.033662497  0.038070114 
  160000    4.0107273 0.0086281833  0.044098498 
  170000    4.2097062 -0.054981228  0.041356957 
  180000    3.8371263 -0.029111728  0.039918772 
  190000    4.3082224 -0.027577158  0.043733864 
  200000    3.6222501 -0.034611341  0.035913014 
  210000    4.0658555 -0.027778894  0.039755387 
  220000    4.0332404  -0.03084429  0.040372948 
  230000    4.2757997 -0.062806036  0.041491689 
  240000    4.0048218 -0.025820388  0.041187881 
  250000    3.7238098 -0.081194192  0.036537738 
  260000    3.7967872 -0.038991703   0.03687583 
  270000    3.6324685 -0.052939561  0.035642329 
  280000    4.5720784 -0.027621549   0.04490972 
  290000    4.3352312 -0.062605776  0.042632588 
  300000    4.2752096 -0.049602378  0.041680501 
  310000    3.6669532 -0.059919451  0.036942431 
  320000     4.060309 -0.051341642  0.040050657 
  330000    4.2505498 -0.042613514  0.041482448 
  340000    4.2600616 -0.061025499  0.041502406 
  350000    4.1264722 -0.047891752  0.040061498 
  360000    4.4648785 -0.055197239  0.043540492 
  370000    4.2925891 -0.045337552  0.041820329 
  380000    4.0893251 -0.079960537  0.039601469 
  390000    4.0296196 -0.049489253  0.039965512 
  400000    4.2270578 -0.045121012  0.041188664 
  410000    4.2107341 -0.049668281  0.042381076 
  420000    3.8959241 -0.065384379  0.038548095 
  430000    4.0192459 -0.061421798  0.039632222 
  440000    4.0728794 -0.064888522  0.039772885 
  450000    3.6941208 -0.025369936  0.036108637 
  460000    3.7021472 -0.024117314  0.039460779 
  470000    4.4389527 -0.053501842  0.043043507 
  480000    3.8869393 -0.010692531  0.039691799 
  490000    4.1376923 -0.064745311  0.041090257 
  500000    4.2976943 -0.038269367  0.042259888 
  510000     3.490383 -0.060805067  0.034138868 
  520000    4.0697523 -0.061201868  0.039834809 
  530000    4.0993399 -0.058026434  0.041562959 
  540000    4.0215044  -0.03965497  0.039191711 
  550000    4.4714662 -0.070614168  0.043565084 
  560000    3.7030179 -0.046945727  0.035940066 
  570000     4.082654 -0.062483156  0.041688742 
  580000    3.8059774 -0.050134283  0.037266075 
  590000    3.7190798 -0.057061545  0.036131827 
  600000    3.8268158  -0.03212991  0.040816754 
  610000    4.4158348 -0.050540372  0.042936267 
  620000    4.3014521 -0.067328696  0.041923301 
  630000    4.3532696 -0.021895343  0.044226221 
  640000    3.7419157 -0.023861918  0.036652416 
  650000     4.077385 -0.051598396  0.041511304 
  660000    4.4251328 -0.025557087  0.043368601 
  670000    3.7280448 -0.061073188  0.036141101 
  680000    4.1512343 -0.026618363  0.044104651 
  690000    4.1083144 -0.068583825  0.041080592 
  700000    4.3457266 -0.021624269  0.042615015 
  710000    3.5129513 -0.055145855  0.034156736 
  720000    3.4891991 -0.033772208   0.03395801 
  730000    4.0117195  -0.05756835  0.039589219 
  740000    4.1014106 -0.059457132  0.040258053 
  750000    4.1249092 -0.063671276  0.040224986 
  760000    4.4949053 -0.033950197   0.04635536 
  770000    3.7649619 -0.076978207  0.039339706 
  780000    3.2544733 -0.064897342  0.031734524 
  790000    4.4680342 -0.079704524  0.043594895 
  800000    3.5646578 -0.050743696  0.035026748 
  810000    4.1514197 -0.064071195  0.040340127 
  820000     4.138367 -0.050455448  0.040392255 
  830000    3.8778335 -0.074159753  0.037616433 
  840000    4.1022654 -0.030810926  0.041146264 
  850000    3.4853374 -0.047931279  0.034435649 
  860000    3.8625087 -0.038411643  0.038479846 
  870000    3.9604468  -0.05727376  0.038460639 
  880000    3.9302207 -0.051163029  0.038416825 
  890000    4.2238407 -0.050092498  0.041079917 
  900000    3.7205217 -0.047128796  0.036095022 
  910000    4.0444527 -0.071933037  0.040094865 
  920000    4.2310283 -0.047004976  0.041208196 
  930000    3.8076598 -0.0034227715  0.040162727 
  940000    3.7644564 -0.077412395  0.037023391 
  950000    4.4072165 -0.036319029   0.04359863 
  960000    3.7103664 -0.043609875  0.039541701 
  970000    3.9736854 -0.039532997  0.038768034 
  980000    3.8469166 -0.062573246  0.037662661 
  990000    4.0038848 0.0012434332  0.043078503 
 1000000    3.8108981 -0.058179826  0.036754638 
 1010000     4.075904 -0.068610819  0.040798785 
 1020000    3.9189131 -0.072291721  0.038162818 
 1030000    4.5512448   0.11040007  0.053734536 
 1040000     3.875521 -0.056697092  0.037546447 
 1050000     3.940335 -0.027263491  0.038559574 
 1060000    3.9043893 -0.063912332  0.037887168 
 1070000    4.0101705 -0.022453802  0.040133782 
 1080000    4.5073597  -0.02467329  0.045134242 
 1090000    4.1032798 -0.078626304  0.039601987 
 1100000    4.3334153  -0.06067143  0.044228856 
Loop time of 15.3291 on 8 procs for 1100000 steps with 100 atoms

Performance: 30999925.381 tau/day, 71759.087 timesteps/s
99.9% CPU use with 8 MPI tasks x 1 OpenMP threads

MPI task timing breakdown:
Section |  min time  |  avg time  |  max time  |%varavg| %total
---------------------------------------------------------------
Pair    | 0.31255    | 0.32067    | 0.33221    |   1.1 |  2.09
Neigh   | 0.37442    | 0.37771    | 0.38074    |   0.4 |  2.46
Comm    | 10.52      | 10.577     | 10.698     |   1.9 | 69.00
Output  | 0.0026241  | 0.0032001  | 0.0071396  |   2.6 |  0.02
Modify  | 3.5677     | 3.6808     | 3.7563     |   3.4 | 24.01
Other   |            | 0.3696     |            |       |  2.41

Nlocal:        12.5000 ave          22 max           8 min
Histogram: 2 1 2 1 0 1 0 0 0 1
Nghost:        29.3750 ave          35 max          22 min
Histogram: 1 0 0 3 0 0 1 0 2 1
Neighs:        5.12500 ave          15 max           3 min
Histogram: 5 2 0 0 0 0 0 0 0 1

Total # of neighbors = 41
Ave neighs/atom = 0.41000000
Neighbor list builds = 55000
Dangerous builds not checked
Total wall time: 0:00:15
