LAMMPS (14 May 2021)
OMP_NUM_THREADS environment is not set. Defaulting to 1 thread. (src/comm.cpp:98)
  using 1 OpenMP thread(s) per MPI task
# 3D Lennard-Jones NVT

#NOTES:
# The variable "rho" is read from the command line argument:
#  E.G., "lmp_serial -in foo -var rho bar1 -var temp bar2"
#  foo = input filename
#  bar1 = input value for variable rho (density)
#  bar2 = input value for variable temp (temperature)
# The restart file specifies the following:
#   System volume, conformation, periodicity
#   Initial configuration and velocities
#   The molecular model (i.e., pair potential, molecular topology)
# The configuration in the restart file is a relaxed configuration
#   for the temperature at which the configuration was generated (T*=1.50).

read_restart    restart/in.nvt.dens_${rho}               #Specify the LAMMPS restart file
read_restart    restart/in.nvt.dens_0.010               
Reading restart file ...
  restart file = 14 May 2021, LAMMPS = 14 May 2021
  restoring atom style atomic from restart
  orthogonal box = (0.0000000 0.0000000 0.0000000) to (21.544347 21.544347 21.544347)
  2 by 2 by 2 MPI processor grid
  restoring pair style lj/cut from restart
  100 atoms
  read_restart CPU = 0.002 seconds
reset_timestep  0                                #Reset the time step counter to 0

#Run Parameters
variable        ext_temp equal ${temp}           #Specify the Thermostat Temperature
variable        ext_temp equal 1.30           
variable        Nevery equal 20                  #Specify the distance (in timesteps) between samples for computing ensemble averages
                                                 #  (Interval between samples in a block)
variable        Nrepeat equal 50                 #Specify the number of samples per output  of thermodynamic averages
                                                 #  (Samples per block output)
variable        Nfreq equal ${Nevery}*${Nrepeat} #Specify the dump interval (in timesteps)
variable        Nfreq equal 20*${Nrepeat} 
variable        Nfreq equal 20*50 
                                                 #  (Some people call these blocks)
variable        nequil equal 100000             #Equilibration length (in timesteps)
variable        nprod  equal 1000000            #Production length (in timesteps)
variable        nrun equal ${nequil}+${nprod}    #Total run length: equilibration + production (in timesteps)
variable        nrun equal 100000+${nprod}    
variable        nrun equal 100000+1000000    
variable        Tdamp equal 0.500                #Specify the Thermostat damping parameter (in time units ; not timesteps)

#Neighbor List
neighbor        0.3 bin                          #Specify the skin distance (padding beyond the cutoff)
neigh_modify    delay 0 every 20 check no        #Adjust the default neighbor list:
                                                 #  (delay 0)
                                                 #  (every 20)
                                                 #  (check no)

#Ensemble Setup: NVT ensemble, thermostatted by Nose-Hoover a chained thermostat, set at temperature $ext_temp
fix		1 all nvt temp ${ext_temp} ${ext_temp} ${Tdamp}
fix		1 all nvt temp 1.3 ${ext_temp} ${Tdamp}
fix		1 all nvt temp 1.3 1.3 ${Tdamp}
fix		1 all nvt temp 1.3 1.3 0.5
Resetting global fix info from restart file:
  fix style: nvt, fix ID: 1

#Output
variable        PotentialEnergy equal epair         #Call the intermolecular potential energy $PotentialEnergy
variable        Pressure equal press                #Call the pressure $Pressure
variable        Temperature equal temp              #Call the instantaneous temperature $Temperature
fix             2 all ave/time ${Nevery} ${Nrepeat} ${Nfreq} v_Temperature v_PotentialEnergy v_Pressure file out/ave.dens_${rho}_${temp}.out
fix             2 all ave/time 20 ${Nrepeat} ${Nfreq} v_Temperature v_PotentialEnergy v_Pressure file out/ave.dens_${rho}_${temp}.out
fix             2 all ave/time 20 50 ${Nfreq} v_Temperature v_PotentialEnergy v_Pressure file out/ave.dens_${rho}_${temp}.out
fix             2 all ave/time 20 50 1000 v_Temperature v_PotentialEnergy v_Pressure file out/ave.dens_${rho}_${temp}.out
fix             2 all ave/time 20 50 1000 v_Temperature v_PotentialEnergy v_Pressure file out/ave.dens_0.010_${temp}.out
fix             2 all ave/time 20 50 1000 v_Temperature v_PotentialEnergy v_Pressure file out/ave.dens_0.010_1.30.out
thermo          10000                               #Specify the interval between screen output of thermodynamic averages
thermo_style    custom step temp epair press        #Print the timestep, temperature, potential energy, and pressure to screen

#Run it!
run             ${nrun}                          #Run the simulation
run             1100000                          
All restart file global fix info was re-assigned
Neighbor list info ...
  update every 20 steps, delay 0 steps, check no
  max neighbors/atom: 2000, page size: 100000
  master list distance cutoff = 2.8
  ghost atom cutoff = 2.8
  binsize = 1.4, bins = 16 16 16
  1 neighbor lists, perpetual/occasional/extra = 1 0 0
  (1) pair lj/cut, perpetual
      attributes: half, newton on
      pair build: half/bin/atomonly/newton
      stencil: half/bin/3d
      bin: standard
Per MPI rank memory allocation (min/avg/max) = 2.567 | 2.567 | 2.567 Mbytes
Step Temp E_pair Press 
       0    1.5710881 -0.070328339  0.015104189 
   10000     1.148518  -0.13508914  0.010087339 
   20000     1.229385 -0.093528442  0.011860071 
   30000    1.2668965 -0.054148811  0.011604027 
   40000    1.1530819 -0.067552434  0.010654534 
   50000    1.4062811  -0.10577593  0.013405397 
   60000    1.3244508 -0.043782671  0.012726582 
   70000    1.3250418 -0.050640974  0.012203127 
   80000    1.3697319 -0.085876496  0.012738543 
   90000    1.2952059 -0.045545135  0.012052963 
  100000    1.5154124   -0.0634776  0.014728255 
  110000     1.185461  -0.06865213  0.012174806 
  120000    1.3792465   -0.1017277  0.014223215 
  130000    1.3798881 -0.059106344  0.013409811 
  140000    1.3901228 -0.062943899  0.014188606 
  150000     1.218482 -0.051680708  0.011653877 
  160000    1.3248881 -0.090725395  0.012929782 
  170000    1.2546318  -0.04508542  0.013989993 
  180000    1.3157344 -0.047737063  0.012477808 
  190000    1.3991156 -0.088466519  0.014103272 
  200000    1.1592878 -0.062515671  0.011725438 
  210000    1.3310119  -0.10164088  0.012734433 
  220000    1.4266197   -0.1100327  0.014833162 
  230000     1.321378 -0.097347186  0.014184218 
  240000    1.4784013 -0.041650931  0.014673542 
  250000    1.1356782 -0.095054234  0.010495367 
  260000     1.354395   -0.0839178  0.013808819 
  270000    1.4792451 -0.077735995   0.01382822 
  280000    1.3587662 -0.057301367   0.01331346 
  290000    1.2002632  -0.06487067   0.01146109 
  300000    1.2517765  -0.04422494  0.011806705 
  310000    1.1589658 -0.062854311   0.01076635 
  320000    1.1889118 -0.058121553  0.011275336 
  330000    1.2226473 -0.042416408  0.011953283 
  340000     1.244972 -0.045102232   0.01479009 
  350000    1.2481533 -0.068143963  0.011658576 
  360000    1.2900799 -0.054655578  0.012629787 
  370000    1.4723663 -0.056145839  0.013622768 
  380000    1.3185292  -0.05731441  0.012311449 
  390000    1.4965815  -0.14732252  0.013290279 
  400000    1.5079544 -0.067819211  0.015396558 
  410000    1.5739345 -0.081577631  0.015279238 
  420000    1.3142782 -0.043086761  0.012516775 
  430000     1.270347 -0.079082632  0.012831637 
  440000    1.2149877 -0.064491569  0.013090703 
  450000    1.3566912  -0.11586199  0.012283891 
  460000    1.2394989 -0.045274696  0.012195078 
  470000    1.2501276 -0.079961181  0.011672868 
  480000    1.2893333  -0.12403504  0.011822474 
  490000    1.3106391 -0.061287167  0.012189267 
  500000     1.305912 -0.031405981  0.014326685 
  510000    1.1454249 -0.067165235  0.011136067 
  520000    1.3066657 -0.030010022  0.014152637 
  530000    1.3508328  -0.04642746  0.012638436 
  540000     1.252674 -0.078489897  0.011412788 
  550000    1.2430486 -0.048680571  0.011644263 
  560000    1.3526738 -0.064435538  0.014161746 
  570000    1.1557989 -0.048867055   0.01125796 
  580000    1.4742701  -0.10998379  0.015097326 
  590000    1.2481725 -0.076706301  0.012732118 
  600000    1.0511071 -0.069285676  0.012114823 
  610000    1.4295718 -0.057553214  0.014270099 
  620000     1.490229 -0.033038964   0.01675023 
  630000    1.4165901 -0.080268048  0.013688945 
  640000    1.1889992  -0.08191371  0.011239772 
  650000    1.3337549 -0.095347421  0.012580918 
  660000    1.4187617 -0.067257458  0.013326649 
  670000    1.2481034 -0.050949657  0.011646794 
  680000    1.2706676  -0.11027488  0.010978856 
  690000    1.4288522 -0.075442597  0.013292671 
  700000    1.3198861  -0.08752153  0.012998498 
  710000    1.3238709 -0.095981634  0.012071809 
  720000    1.3871064 -0.056413827  0.013144037 
  730000    1.5211388 -0.090628365  0.015230609 
  740000    1.2754715 -0.075169383   0.01161185 
  750000    1.4295196  -0.07090424   0.01354907 
  760000    1.4232169 -0.059789461  0.013408588 
  770000    1.3262706 -0.063721543  0.012760635 
  780000    1.3229844 -0.087984799  0.013388572 
  790000    1.1582557  -0.08961998   0.01055379 
  800000    1.3439392 -0.089165011  0.012068303 
  810000    1.2516416 -0.070781459  0.012951813 
  820000    1.2860333 -0.050689249  0.012917556 
  830000     1.264957 -0.058479261  0.012275772 
  840000    1.2863247 -0.096270366  0.011813634 
  850000    1.2802368   -0.1001748  0.011515839 
  860000    1.1834074   -0.0503392  0.012037038 
  870000    1.2829485 -0.057436324  0.012412224 
  880000    1.2829181 -0.050764014  0.012724496 
  890000    1.4315379 -0.068606789  0.013993417 
  900000    1.1933199 -0.064805141  0.013318573 
  910000    1.2839115 -0.094615217  0.012437787 
  920000    1.1532905 -0.073284276  0.010254308 
  930000    1.3677009  -0.12101791  0.013042068 
  940000    1.1292431 -0.079605542  0.012196377 
  950000    1.2632757 -0.084145129  0.011843292 
  960000    1.3243355   -0.1076648  0.012101289 
  970000    1.3034842 -0.049604191  0.014651374 
  980000    1.4076246 -0.044556891  0.014093408 
  990000    1.4280414  -0.10911804  0.013153462 
 1000000    1.4632594 -0.049299651  0.014774386 
 1010000    1.1586555 -0.066650814  0.012030333 
 1020000    1.4420307 -0.074386493   0.01360705 
 1030000    1.2529948  -0.10868003   0.01088304 
 1040000    1.2587237 -0.064988535  0.011644018 
 1050000    1.2599377 -0.069236248  0.011486655 
 1060000    1.3584714  -0.12337077  0.013095848 
 1070000    1.3627483 -0.051088909   0.01363258 
 1080000    1.1453373 -0.059203282  0.010525408 
 1090000    1.3539627 -0.058062342  0.012586913 
 1100000    1.2050311  -0.10878091  0.011861376 
Loop time of 15.4315 on 8 procs for 1100000 steps with 100 atoms

Performance: 30794078.390 tau/day, 71282.589 timesteps/s
99.7% CPU use with 8 MPI tasks x 1 OpenMP threads

MPI task timing breakdown:
Section |  min time  |  avg time  |  max time  |%varavg| %total
---------------------------------------------------------------
Pair    | 0.31733    | 0.32437    | 0.33112    |   0.7 |  2.10
Neigh   | 0.37427    | 0.37689    | 0.38208    |   0.4 |  2.44
Comm    | 10.505     | 10.64      | 10.761     |   2.4 | 68.95
Output  | 0.0026926  | 0.0043368  | 0.015719   |   6.5 |  0.03
Modify  | 3.6023     | 3.7079     | 3.8461     |   3.9 | 24.03
Other   |            | 0.3781     |            |       |  2.45

Nlocal:        12.5000 ave          19 max           8 min
Histogram: 3 0 1 0 0 2 0 1 0 1
Nghost:        33.0000 ave          36 max          27 min
Histogram: 1 0 0 1 0 1 1 1 0 3
Neighs:        6.12500 ave           8 max           1 min
Histogram: 1 0 0 0 0 0 0 2 4 1

Total # of neighbors = 49
Ave neighs/atom = 0.49000000
Neighbor list builds = 55000
Dangerous builds not checked
Total wall time: 0:00:15
