LAMMPS (14 May 2021)
OMP_NUM_THREADS environment is not set. Defaulting to 1 thread. (src/comm.cpp:98)
  using 1 OpenMP thread(s) per MPI task
# 3d Lennard-Jones NVT

#NOTE: the variable "rho" is read from the command line argument:
#  E.G., "lmp_serial -in foo -var rho bar"
#  foo = input filename
#  bar = input value for variable rho

#Essential definitions
units           lj                                      #Units type: Lennard-Jones
atom_style      atomic                                  #Atom Style: Atoms

#Run Parameters
variable        ext_temp equal 1.50                     #Specify the thermostat Temperature
variable        Nevery equal 20                         #Specify the distance (in timesteps) between samples for computing ensemble averages
                                                        #  (Interval between samples in a block)
variable        Nrepeat equal 50                        #Specify the number of samples per output  of thermodynamic averages
                                                        #  (Samples per block output)
variable        Nfreq equal ${Nevery}*${Nrepeat}        #Specify the dump interval (in timesteps)
variable        Nfreq equal 20*${Nrepeat}        
variable        Nfreq equal 20*50        
                                                        #  (Some people call these blocks)
variable        nrun equal 1000000                      #Specify the MD run length (in timesteps
variable        Tdamp equal 0.500                       #Specify the Thermostat damping parameter (in time units ; not timesteps)
variable        cfg_seed equal 45232                    #Seed integer for generating the initial, random configuration
variable        vel_seed equal 87287                    #Seed integer for generating the initial, random velocities

#System Size: Set Nmols and density, get volume
variable        Nmols equal 100                         #Specify number of LJ molecules
variable        density equal ${rho}                    #Specify simulation density from a command-line argument
variable        density equal 0.001                    
variable        L equal (${Nmols}/${density})^(1.0/3.0)
variable        L equal (100/${density})^(1.0/3.0)
variable        L equal (100/0.001)^(1.0/3.0)
                                                        #Cubic system dimensions selected based on Nmols and density

#System Volume
boundary        p p p                                   #Specify Periodic boundary conditions at all system boundaries
region          box block 0.0 ${L} 0.0 ${L} 0.0 ${L}    #Specify a cubic simulation box with dimensions L
region          box block 0.0 46.4158883361278 0.0 ${L} 0.0 ${L}    
region          box block 0.0 46.4158883361278 0.0 46.4158883361278 0.0 ${L}    
region          box block 0.0 46.4158883361278 0.0 46.4158883361278 0.0 46.4158883361278    
create_box      1 box                                   #Create the box
Created orthogonal box = (0.0000000 0.0000000 0.0000000) to (46.415888 46.415888 46.415888)
  2 by 2 by 2 MPI processor grid
create_atoms    1 random ${Nmols} ${cfg_seed} NULL      #Create an initial configuration randomly
create_atoms    1 random 100 ${cfg_seed} NULL      
create_atoms    1 random 100 45232 NULL      
Created 100 atoms
  create_atoms CPU = 0.000 seconds

#Molecular Model
# NOTE: This block must be after the "System Volume" section
pair_style      lj/cut 8.0                              #Pair potential is Lennard-Jones
                                                        #  Truncation radius is 2.5sigma
pair_coeff      1 1 1.0 1.0                             #Pure Lennard-Jones, use sigma=1, epsilon=1
mass            1 1.0                                   #Pure Lennard-Jones, use mass=1

#Neighbor List
neighbor        0.3 bin                                 #Specify the skin distance (padding beyond the cutoff)
neigh_modify    delay 0 every 20 check no               #Adjust the default neighbor list:
                                                        #  (delay 0)
                                                        #  (every 20)
                                                        #  (check no)
#Initial Velocities
velocity        all create ${ext_temp} ${vel_seed} loop geom
velocity        all create 1.5 ${vel_seed} loop geom
velocity        all create 1.5 87287 loop geom
                                                        #Create an initial velocity distribution using the specified
                                                        #  external temperature

#Relax the initial configuration
minimize        1.0E-4 1.0E-6 1000 100000               #Relax the initial configuration and velocities
WARNING: Using 'neigh_modify every 1 delay 0 check yes' setting during minimization (src/min.cpp:189)
Neighbor list info ...
  update every 1 steps, delay 0 steps, check yes
  max neighbors/atom: 2000, page size: 100000
  master list distance cutoff = 8.3
  ghost atom cutoff = 8.3
  binsize = 4.15, bins = 12 12 12
  1 neighbor lists, perpetual/occasional/extra = 1 0 0
  (1) pair lj/cut, perpetual
      attributes: half, newton on
      pair build: half/bin/atomonly/newton
      stencil: half/bin/3d
      bin: standard
Per MPI rank memory allocation (min/avg/max) = 4.188 | 4.188 | 4.188 Mbytes
Step Temp E_pair E_mol TotEng Press 
       0          1.5 -0.00053525845            0    2.2269647 0.0014839316 
      19          1.5 -0.020333014            0     2.207167 0.0014842803 
Loop time of 0.0014798 on 8 procs for 19 steps with 100 atoms

64.1% CPU use with 8 MPI tasks x 1 OpenMP threads

Minimization stats:
  Stopping criterion = energy tolerance
  Energy initial, next-to-last, final = 
    -0.000535258446152305 -0.0203318152416696 -0.0203330137701365
  Force two-norm initial, final = 0.067059217 0.081302330
  Force max component initial, final = 0.034131002 0.033758100
  Final line search alpha, max atom move = 0.031250000 0.0010549406
  Iterations, force evaluations = 19 50

MPI task timing breakdown:
Section |  min time  |  avg time  |  max time  |%varavg| %total
---------------------------------------------------------------
Pair    | 2.5569e-05 | 3.9704e-05 | 6.8268e-05 |   0.0 |  2.68
Neigh   | 3.5642e-05 | 4.8138e-05 | 6.6115e-05 |   0.0 |  3.25
Comm    | 0.00067379 | 0.00070652 | 0.00072971 |   0.0 | 47.74
Output  | 0          | 0          | 0          |   0.0 |  0.00
Modify  | 0          | 0          | 0          |   0.0 |  0.00
Other   |            | 0.0006854  |            |       | 46.32

Nlocal:        12.5000 ave          17 max           8 min
Histogram: 1 0 2 0 1 0 2 1 0 1
Nghost:        47.7500 ave          54 max          44 min
Histogram: 2 1 1 0 0 2 0 1 0 1
Neighs:        13.5000 ave          24 max           8 min
Histogram: 2 1 2 0 1 1 0 0 0 1

Total # of neighbors = 108
Ave neighs/atom = 1.0800000
Neighbor list builds = 6
Dangerous builds not checked
                                                        #  Energy tolerance = 1.0E-4
                                                        #  Force tolerance = 1.0E-6
                                                        #  Maximum number of iterations = 1000
                                                        #  Maximum number of force/energy evaluations = 100000

#Ensemble Setup
fix		1 all nvt temp ${ext_temp} ${ext_temp} ${Tdamp}
fix		1 all nvt temp 1.5 ${ext_temp} ${Tdamp}
fix		1 all nvt temp 1.5 1.5 ${Tdamp}
fix		1 all nvt temp 1.5 1.5 0.5
# Previous line specifies: NVT ensemble, thermostatted by Nose-Hoover a chained thermostat, set at temperature $ext_temp

#Output
variable        PotentialEnergy equal epair             #Call the intermolecular potential energy $epair
variable        Pressure equal press                    #Call the pressure $press
variable        Temperature equal temp                  #Call the instantaneous temperature $temp
fix             2 all ave/time ${Nevery} ${Nrepeat} ${Nfreq} v_Temperature v_PotentialEnergy v_Pressure file out/ave.dens_${rho}.out
fix             2 all ave/time 20 ${Nrepeat} ${Nfreq} v_Temperature v_PotentialEnergy v_Pressure file out/ave.dens_${rho}.out
fix             2 all ave/time 20 50 ${Nfreq} v_Temperature v_PotentialEnergy v_Pressure file out/ave.dens_${rho}.out
fix             2 all ave/time 20 50 1000 v_Temperature v_PotentialEnergy v_Pressure file out/ave.dens_${rho}.out
fix             2 all ave/time 20 50 1000 v_Temperature v_PotentialEnergy v_Pressure file out/ave.dens_0.001.out
thermo          10000                                   #Specify the interval between screen output of thermodynamic averages
thermo_style    custom step temp epair press            #Format for screen output of thermodynamics
                                                        #  (MD step, temperature, potential energy, pressure)

#Run it!
run             ${nrun}                                 #Run the simulation
run             1000000                                 
Per MPI rank memory allocation (min/avg/max) = 2.563 | 2.563 | 2.563 Mbytes
Step Temp E_pair Press 
      19          1.5 -0.020333014 0.0014842803 
   10000    1.5588489 -0.024705355  0.001536413 
   20000    1.5750472 -0.0074805957 0.0015449125 
   30000     1.626942 -0.0015103705 0.0016076699 
   40000    1.6438392 -0.0020182125  0.001623402 
   50000    1.3089966 -0.00091479132 0.0012940821 
   60000    1.4581555 -0.00075755543  0.001442063 
   70000    1.5803554 -0.0015403649 0.0015615504 
   80000    1.5868541 -0.0026203456 0.0015658195 
   90000    1.3818011 -0.011470334   0.00135585 
  100000    1.4476632 -0.023952841 0.0014037823 
  110000    1.3027509 -0.0015789699 0.0012865888 
  120000    1.7607718 -0.0099778364 0.0017644227 
  130000    1.5226642 -0.0098109624 0.0014895663 
  140000    1.5393576 -0.021893408 0.0015163015 
  150000    1.3205229 -0.0074798515 0.0012954113 
  160000    1.4534555 -0.031436218 0.0013996608 
  170000    1.5398097 -0.001571847  0.001521291 
  180000    1.5548276 -0.0020188397 0.0015352971 
  190000    1.5064449 -0.00085636657  0.001489672 
  200000    1.4973124 -0.029430986 0.0014492751 
  210000    1.6278799 -0.0056163286  0.001659501 
  220000    1.2987652 -0.0010233765 0.0012837504 
  230000    1.4805905 -0.010049054 0.0014479259 
  240000    1.8149077 -0.0034998647 0.0017899464 
  250000    1.3876993 -0.0017781741 0.0013703166 
  260000    1.5465597 -0.013835345  0.001511118 
  270000    1.4644047  -0.00896964 0.0014338542 
  280000    1.5493041 -0.0081734907 0.0015187668 
  290000    1.4964017 -0.028922881 0.0014456541 
  300000    1.5119268 -0.012383533 0.0014763162 
  310000    1.7543178 -0.0017932607 0.0017332289 
  320000    1.4941571 -0.0039373642 0.0014714969 
  330000     1.541155 -0.0077905703 0.0015117236 
  340000    1.3477732 -0.011701171 0.0013159458 
  350000    1.6109405 -0.012930655 0.0015909808 
  360000    1.6233786 -0.0083458213 0.0015923426 
  370000     1.571047 -0.012232974  0.001534448 
  380000    1.4845647 -0.0064675252 0.0014592912 
  390000    1.5683758 -0.00063960667 0.0015514162 
  400000    1.4973935 -0.0039287529 0.0014747349 
  410000    1.5799498 -0.0082169506 0.0015954113 
  420000    1.4423547 -0.0087484267 0.0014141475 
  430000    1.5207362 -0.013592423 0.0014852223 
  440000    1.4013079 -0.0087399777  0.001370979 
  450000    1.5394393 -0.019705969 0.0014978981 
  460000    1.4472964 -0.006225468 0.0014227622 
  470000    1.6330652 -0.0069540968 0.0016055651 
  480000    1.6306383 -0.003318621 0.0016080535 
  490000    1.4575523 -0.0061408094 0.0014322871 
  500000    1.5652663 -0.0019011242  0.001545912 
  510000    1.5624333 -0.019121112 0.0015801746 
  520000    1.4526089 -0.0041596565 0.0014305796 
  530000    1.7263949 -0.015231752 0.0016828622 
  540000    1.3579024 -0.0036641935 0.0013371459 
  550000    1.3485731  -0.01247235  0.001386696 
  560000    1.2998082 -0.004629961  0.001277902 
  570000    1.6905337 -0.011353167 0.0016826461 
  580000    1.4749304 -0.0012177774 0.0014577609 
  590000    1.5202538 -0.0062825731 0.0014937018 
  600000    1.3680237 -0.0062639526 0.0013427309 
  610000     1.483122 -0.0016878718  0.001464936 
  620000     1.597589 -0.0043497153 0.0015735863 
  630000    1.5046751 -0.017226042 0.0014815535 
  640000    1.5565119 -0.011063068  0.001547975 
  650000    1.4618362 -0.0022689155 0.0014428292 
  660000    1.5927064 -0.0033562134 0.0015702713 
  670000      1.48117 -0.011074217 0.0014770437 
  680000    1.4625413 -0.0037779712 0.0014407935 
  690000    1.3451273 -0.0028681281 0.0013260202 
  700000    1.6184917 -0.001530375 0.0017415857 
  710000    1.2578925 -0.035585786 0.0012036714 
  720000    1.7677569 -0.00048550682 0.0018503187 
  730000    1.6571462 -0.0030533678 0.0016346434 
  740000     1.450836 -0.007419553 0.0014227178 
  750000    1.4848185 -0.014709116 0.0014705966 
  760000    1.3650628 -0.0018044807 0.0013478386 
  770000    1.6815236 -0.013926054 0.0016438502 
  780000     1.493975 -0.0040172964 0.0014713266 
  790000    1.2701439 -0.016341708 0.0013252651 
  800000     1.442436 -0.016223766 0.0014065394 
  810000    1.4659355 -0.0092652728 0.0014390365 
  820000    1.5594757 -0.010565368 0.0015342864 
  830000    1.5520566 -0.024407343 0.0015181454 
  840000    1.5538481 -0.00037470503 0.0015375614 
  850000    1.8479493 -0.0054137112 0.0018191737 
  860000    1.4963517 -0.0013465988 0.0014787147 
  870000    1.7679161 -0.0096141405  0.001763938 
  880000    1.4780229 -0.0089627383 0.0014525739 
  890000    1.5197504 -0.020646661 0.0015043665 
  900000    1.5521534 -0.032274705 0.0015027368 
  910000    1.4991018 -0.027466252 0.0014594055 
  920000    1.4280184 -0.0052739822 0.0014034253 
  930000    1.5202713  0.004807079 0.0016243717 
  940000    1.4023036 -0.00076420764 0.0013867588 
  950000    1.5440265 -0.0076885544  0.001515989 
  960000    1.4866297 -0.0040254125 0.0014638523 
  970000    1.5718455 -0.0032666338 0.0015497085 
  980000    1.5081066 -0.00094035352  0.001491158 
  990000    1.5145386 -0.025009057  0.001466777 
 1000000    1.5411205 -0.019140044 0.0014973167 
 1000019    1.5308766 -0.017413745 0.0015006288 
Loop time of 16.0098 on 8 procs for 1000000 steps with 100 atoms

Performance: 26983438.769 tau/day, 62461.664 timesteps/s
99.9% CPU use with 8 MPI tasks x 1 OpenMP threads

MPI task timing breakdown:
Section |  min time  |  avg time  |  max time  |%varavg| %total
---------------------------------------------------------------
Pair    | 0.49081    | 0.5137     | 0.53945    |   2.2 |  3.21
Neigh   | 0.35587    | 0.36598    | 0.37273    |   0.9 |  2.29
Comm    | 11.197     | 11.338     | 11.444     |   2.3 | 70.82
Output  | 0.0024559  | 0.0038411  | 0.01343    |   5.8 |  0.02
Modify  | 3.3284     | 3.4085     | 3.5037     |   3.2 | 21.29
Other   |            | 0.3795     |            |       |  2.37

Nlocal:        12.5000 ave          18 max           7 min
Histogram: 1 1 1 1 0 1 0 1 0 2
Nghost:        45.6250 ave          50 max          42 min
Histogram: 1 1 3 0 0 0 0 0 2 1
Neighs:        14.7500 ave          29 max           5 min
Histogram: 1 2 1 1 0 1 0 0 0 2

Total # of neighbors = 118
Ave neighs/atom = 1.1800000
Neighbor list builds = 50000
Dangerous builds not checked
write_restart   restart/in.nvt.dens_${rho}                      #Write the ending simulation conditions to a restart file
write_restart   restart/in.nvt.dens_0.001                      
System init for write_restart ...
Total wall time: 0:00:16
