LAMMPS (14 May 2021)
OMP_NUM_THREADS environment is not set. Defaulting to 1 thread. (src/comm.cpp:98)
  using 1 OpenMP thread(s) per MPI task
# 3D Lennard-Jones NVT

#NOTES:
# The variable "rho" is read from the command line argument:
#  E.G., "lmp_serial -in foo -var rho bar1 -var temp bar2"
#  foo = input filename
#  bar1 = input value for variable rho (density)
#  bar2 = input value for variable temp (temperature)
# The restart file specifies the following:
#   System volume, conformation, periodicity
#   Initial configuration and velocities
#   The molecular model (i.e., pair potential, molecular topology)
# The configuration in the restart file is a relaxed configuration
#   for the temperature at which the configuration was generated (T*=1.50).

read_restart    restart/in.nvt.dens_${rho}               #Specify the LAMMPS restart file
read_restart    restart/in.nvt.dens_0.001               
Reading restart file ...
  restart file = 14 May 2021, LAMMPS = 14 May 2021
  restoring atom style atomic from restart
  orthogonal box = (0.0000000 0.0000000 0.0000000) to (46.415888 46.415888 46.415888)
  2 by 2 by 2 MPI processor grid
  restoring pair style lj/cut from restart
  100 atoms
  read_restart CPU = 0.002 seconds
reset_timestep  0                                #Reset the time step counter to 0

#Run Parameters
variable        ext_temp equal ${temp}           #Specify the Thermostat Temperature
variable        ext_temp equal 0.95           
variable        Nevery equal 20                  #Specify the distance (in timesteps) between samples for computing ensemble averages
                                                 #  (Interval between samples in a block)
variable        Nrepeat equal 50                 #Specify the number of samples per output  of thermodynamic averages
                                                 #  (Samples per block output)
variable        Nfreq equal ${Nevery}*${Nrepeat} #Specify the dump interval (in timesteps)
variable        Nfreq equal 20*${Nrepeat} 
variable        Nfreq equal 20*50 
                                                 #  (Some people call these blocks)
variable        nequil equal 100000             #Equilibration length (in timesteps)
variable        nprod  equal 1000000            #Production length (in timesteps)
variable        nrun equal ${nequil}+${nprod}    #Total run length: equilibration + production (in timesteps)
variable        nrun equal 100000+${nprod}    
variable        nrun equal 100000+1000000    
variable        Tdamp equal 0.500                #Specify the Thermostat damping parameter (in time units ; not timesteps)

#Neighbor List
neighbor        0.3 bin                          #Specify the skin distance (padding beyond the cutoff)
neigh_modify    delay 0 every 20 check no        #Adjust the default neighbor list:
                                                 #  (delay 0)
                                                 #  (every 20)
                                                 #  (check no)

#Ensemble Setup: NVT ensemble, thermostatted by Nose-Hoover a chained thermostat, set at temperature $ext_temp
fix		1 all nvt temp ${ext_temp} ${ext_temp} ${Tdamp}
fix		1 all nvt temp 0.95 ${ext_temp} ${Tdamp}
fix		1 all nvt temp 0.95 0.95 ${Tdamp}
fix		1 all nvt temp 0.95 0.95 0.5
Resetting global fix info from restart file:
  fix style: nvt, fix ID: 1

#Output
variable        PotentialEnergy equal epair         #Call the intermolecular potential energy $PotentialEnergy
variable        Pressure equal press                #Call the pressure $Pressure
variable        Temperature equal temp              #Call the instantaneous temperature $Temperature
fix             2 all ave/time ${Nevery} ${Nrepeat} ${Nfreq} v_Temperature v_PotentialEnergy v_Pressure file out/ave.dens_${rho}_${temp}.out
fix             2 all ave/time 20 ${Nrepeat} ${Nfreq} v_Temperature v_PotentialEnergy v_Pressure file out/ave.dens_${rho}_${temp}.out
fix             2 all ave/time 20 50 ${Nfreq} v_Temperature v_PotentialEnergy v_Pressure file out/ave.dens_${rho}_${temp}.out
fix             2 all ave/time 20 50 1000 v_Temperature v_PotentialEnergy v_Pressure file out/ave.dens_${rho}_${temp}.out
fix             2 all ave/time 20 50 1000 v_Temperature v_PotentialEnergy v_Pressure file out/ave.dens_0.001_${temp}.out
fix             2 all ave/time 20 50 1000 v_Temperature v_PotentialEnergy v_Pressure file out/ave.dens_0.001_0.95.out
thermo          10000                               #Specify the interval between screen output of thermodynamic averages
thermo_style    custom step temp epair press        #Print the timestep, temperature, potential energy, and pressure to screen

#Run it!
run             ${nrun}                          #Run the simulation
run             1100000                          
All restart file global fix info was re-assigned
Neighbor list info ...
  update every 20 steps, delay 0 steps, check no
  max neighbors/atom: 2000, page size: 100000
  master list distance cutoff = 8.3
  ghost atom cutoff = 8.3
  binsize = 4.15, bins = 12 12 12
  1 neighbor lists, perpetual/occasional/extra = 1 0 0
  (1) pair lj/cut, perpetual
      attributes: half, newton on
      pair build: half/bin/atomonly/newton
      stencil: half/bin/3d
      bin: standard
Per MPI rank memory allocation (min/avg/max) = 2.563 | 2.563 | 2.563 Mbytes
Step Temp E_pair Press 
       0    1.5308766 -0.017413745 0.0015006288 
   10000   0.95439151 -0.00080996988 0.00094323175 
   20000     1.019729 -0.013450702 0.00099665229 
   30000   0.88224722 -0.010973378 0.00085671304 
   40000   0.86885676 -0.0039793168 0.00085249666 
   50000   0.96199714 -0.016427618 0.00092803768 
   60000    1.0268715 -0.008001935 0.0010028733 
   70000   0.86346299 -0.0096678894 0.00087446732 
   80000    0.9745739 -0.0080538288 0.00095068438 
   90000   0.97182609 -0.014009779 0.00094384622 
  100000    0.9128335 -0.018132047 0.00088883295 
  110000   0.97580318 -0.0083552366 0.00095234962 
  120000    1.0335455 -0.010085423 0.0010052521 
  130000    1.0095725 -0.0021724815 0.0009951636 
  140000   0.93968506  -0.00554842 0.00091979762 
  150000   0.86848296 -0.0037582391 0.00085262926 
  160000   0.90046305 -0.0062460521 0.00087969839 
  170000   0.97218002 -0.0039244502 0.00095535453 
  180000   0.96518746  -0.01367677 0.00093499252 
  190000    1.0279953 -0.0031890344 0.0010114423 
  200000    1.0376714 -0.00093399751 0.0010254332 
  210000    1.0825914 -0.0031076633 0.0010657515 
  220000   0.95853938 -0.00083994302 0.00094728093 
  230000   0.88720232 -0.029078115 0.00085508222 
  240000   0.93575856 -0.016069299 0.00094216398 
  250000   0.79963549 -0.0076808184 0.00083870334 
  260000   0.93961472 -0.0017081572 0.0009268408 
  270000   0.94644192 -0.0033414311 0.00093048348 
  280000   0.82394792 -0.019890839   0.00079587 
  290000   0.96513858 -0.012773014 0.00094732793 
  300000   0.89894109 -0.0058662181 0.00087885713 
  310000   0.92070423 -0.002022577  0.000907503 
  320000    0.9957502 -0.011448553 0.0009654137 
  330000    0.9762238 -0.0087001347 0.00095047946 
  340000   0.88531696 -0.011675984 0.00088391914 
  350000   0.96918604 -0.005080962 0.00095030334 
  360000   0.91356338 -0.0023660776 0.00089977103 
  370000    1.0792409 -0.0052394147 0.0010585927 
  380000   0.90720863 -0.0022346981 0.00089382394 
  390000   0.83698208 -0.0069716234 0.00081702705 
  400000   0.84825562 -0.019394894 0.00083522922 
  410000    0.9973763 -0.010740144 0.00097496301 
  420000   0.87328505 -0.0018693336 0.0008608457 
  430000    0.8080249 -0.011706431 0.00078602474 
  440000    1.0272217 -0.00094786568 0.0010150586 
  450000   0.92435681 -0.00072460502 0.00091366845 
  460000   0.84212804 -0.0060535698 0.00082323024 
  470000   0.87694436  -0.01572771 0.00086475229 
  480000    0.9249059 -0.026759349 0.00089986899 
  490000   0.89496266 -0.00089199999 0.00088423651 
  500000    1.0163319 -0.018156443 0.0010072094 
  510000    1.0308798 -0.013827332 0.00099674925 
  520000   0.89725322 -0.016750546 0.0008678241 
  530000   0.87996007 -0.0063436866 0.00091421049 
  540000    1.0356921 -0.003037018 0.0010193916 
  550000   0.96125834 -0.0035246989 0.00094485179 
  560000   0.95501376 -0.0020834578 0.00094138806 
  570000    1.1585753 -0.010237723  0.001130768 
  580000   0.99902023 -0.00088828716 0.00098726665 
  590000    1.0327495 -0.00092457822 0.0010205762 
  600000   0.98093895 -0.0043820118 0.00096269425 
  610000   0.99966901 -0.0097740099 0.00097122011 
  620000    1.1055865 -0.011144217  0.001177154 
  630000   0.90641685 -0.0009633419 0.00089543261 
  640000   0.97652179 -0.012136425 0.00094623833 
  650000   0.95741903 -0.00054643931 0.00094675436 
  660000   0.84042409 -0.0092013334 0.00081842238 
  670000   0.91576103   -0.0201865 0.00088550874 
  680000   0.98520384 -0.014814576 0.0009932623 
  690000    0.9879872 -0.007035863 0.0010390414 
  700000    1.0085875 -0.00045540467 0.00099759171 
  710000   0.91270935 -0.018684752 0.00087861062 
  720000    1.1072345 -0.0014456426 0.0010932898 
  730000    1.0667462 -0.013091368 0.0010476317 
  740000    1.0496306 -0.0021236343   0.00103496 
  750000   0.90610733 -0.0013717611 0.0008943169 
  760000    1.0422691 -0.018297632 0.0010265604 
  770000   0.93639446 -0.001144781 0.00092474901 
  780000   0.95472448 -0.0012456921 0.00094269635 
  790000   0.85057124 -0.0026812516 0.00083680522 
  800000    1.0174689 -0.0089774775 0.00099181491 
  810000    0.8953072 -0.033532856 0.0009213985 
  820000   0.88731774  -0.00237195 0.00087388529 
  830000    0.8685532 -0.0017564374 0.00085641177 
  840000   0.89625114 -0.00087970111 0.00088553293 
  850000    1.0083521 -0.00084890014 0.00099657985 
  860000   0.96271887 -0.009455609 0.00093901811 
  870000    1.0633232 -0.023423053 0.0010396987 
  880000   0.86049216 -0.027291912 0.00086427442 
  890000    0.8319603 -0.010193827 0.00081015027 
  900000     1.044691 -0.010140864 0.0010154245 
  910000   0.90986176 -0.0016789516 0.00089744738 
  920000   0.88178448 -0.019841328 0.00085920722 
  930000   0.87693886 -0.0014825149 0.00086522234 
  940000   0.88253811 -0.021344268 0.00085273896 
  950000   0.95783946 -0.011267187 0.00098585648 
  960000   0.90527053 -0.0069100638 0.00088523986 
  970000    1.0648191 -0.0029219705 0.0010484825 
  980000   0.99294736 -0.014726958 0.00095839799 
  990000   0.98302042 -0.014435375 0.00096310127 
 1000000     1.066198   -0.0109329 0.0011046083 
 1010000   0.89890702 -0.00088478097 0.00088815473 
 1020000   0.87227902 -0.0022057339 0.00085917885 
 1030000    1.0756991 -0.0012517115 0.0010624784 
 1040000   0.94173551 -0.014391232 0.00091015516 
 1050000   0.98994267 -0.010116919 0.00096798774 
 1060000   0.83607767   -0.0116495 0.0008079869 
 1070000    1.0081234 -0.0096701423 0.0010129612 
 1080000   0.84362886 -0.0043598281 0.00082668922 
 1090000   0.97313753 -0.0032347004 0.00095715213 
 1100000   0.90929081 -0.0025937145 0.00089527012 
Loop time of 17.658 on 8 procs for 1100000 steps with 100 atoms

Performance: 26911270.829 tau/day, 62294.608 timesteps/s
99.8% CPU use with 8 MPI tasks x 1 OpenMP threads

MPI task timing breakdown:
Section |  min time  |  avg time  |  max time  |%varavg| %total
---------------------------------------------------------------
Pair    | 0.54373    | 0.56337    | 0.57529    |   1.3 |  3.19
Neigh   | 0.39176    | 0.40688    | 0.45158    |   2.8 |  2.30
Comm    | 12.532     | 12.568     | 12.644     |   1.1 | 71.18
Output  | 0.0027134  | 0.004266   | 0.01511    |   6.3 |  0.02
Modify  | 3.686      | 3.715      | 3.7441     |   1.1 | 21.04
Other   |            | 0.4003     |            |       |  2.27

Nlocal:        12.5000 ave          15 max          10 min
Histogram: 1 0 1 0 3 0 1 0 0 2
Nghost:        45.5000 ave          53 max          36 min
Histogram: 1 1 1 0 1 0 1 0 0 3
Neighs:        14.2500 ave          28 max           6 min
Histogram: 1 0 0 5 1 0 0 0 0 1

Total # of neighbors = 114
Ave neighs/atom = 1.1400000
Neighbor list builds = 55000
Dangerous builds not checked
Total wall time: 0:00:17
