LAMMPS (14 May 2021)
OMP_NUM_THREADS environment is not set. Defaulting to 1 thread. (src/comm.cpp:98)
  using 1 OpenMP thread(s) per MPI task
# 3D Lennard-Jones NVT

#NOTES:
# The variable "rho" is read from the command line argument:
#  E.G., "lmp_serial -in foo -var rho bar1 -var temp bar2"
#  foo = input filename
#  bar1 = input value for variable rho (density)
#  bar2 = input value for variable temp (temperature)
# The restart file specifies the following:
#   System volume, conformation, periodicity
#   Initial configuration and velocities
#   The molecular model (i.e., pair potential, molecular topology)
# The configuration in the restart file is a relaxed configuration
#   for the temperature at which the configuration was generated (T*=1.50).

read_restart    restart/in.nvt.dens_${rho}               #Specify the LAMMPS restart file
read_restart    restart/in.nvt.dens_0.001               
Reading restart file ...
  restart file = 14 May 2021, LAMMPS = 14 May 2021
  restoring atom style atomic from restart
  orthogonal box = (0.0000000 0.0000000 0.0000000) to (46.415888 46.415888 46.415888)
  2 by 2 by 2 MPI processor grid
  restoring pair style lj/cut from restart
  100 atoms
  read_restart CPU = 0.002 seconds
reset_timestep  0                                #Reset the time step counter to 0

#Run Parameters
variable        ext_temp equal ${temp}           #Specify the Thermostat Temperature
variable        ext_temp equal 1.60           
variable        Nevery equal 20                  #Specify the distance (in timesteps) between samples for computing ensemble averages
                                                 #  (Interval between samples in a block)
variable        Nrepeat equal 50                 #Specify the number of samples per output  of thermodynamic averages
                                                 #  (Samples per block output)
variable        Nfreq equal ${Nevery}*${Nrepeat} #Specify the dump interval (in timesteps)
variable        Nfreq equal 20*${Nrepeat} 
variable        Nfreq equal 20*50 
                                                 #  (Some people call these blocks)
variable        nequil equal 100000             #Equilibration length (in timesteps)
variable        nprod  equal 1000000            #Production length (in timesteps)
variable        nrun equal ${nequil}+${nprod}    #Total run length: equilibration + production (in timesteps)
variable        nrun equal 100000+${nprod}    
variable        nrun equal 100000+1000000    
variable        Tdamp equal 0.500                #Specify the Thermostat damping parameter (in time units ; not timesteps)

#Neighbor List
neighbor        0.3 bin                          #Specify the skin distance (padding beyond the cutoff)
neigh_modify    delay 0 every 20 check no        #Adjust the default neighbor list:
                                                 #  (delay 0)
                                                 #  (every 20)
                                                 #  (check no)

#Ensemble Setup: NVT ensemble, thermostatted by Nose-Hoover a chained thermostat, set at temperature $ext_temp
fix		1 all nvt temp ${ext_temp} ${ext_temp} ${Tdamp}
fix		1 all nvt temp 1.6 ${ext_temp} ${Tdamp}
fix		1 all nvt temp 1.6 1.6 ${Tdamp}
fix		1 all nvt temp 1.6 1.6 0.5
Resetting global fix info from restart file:
  fix style: nvt, fix ID: 1

#Output
variable        PotentialEnergy equal epair         #Call the intermolecular potential energy $PotentialEnergy
variable        Pressure equal press                #Call the pressure $Pressure
variable        Temperature equal temp              #Call the instantaneous temperature $Temperature
fix             2 all ave/time ${Nevery} ${Nrepeat} ${Nfreq} v_Temperature v_PotentialEnergy v_Pressure file out/ave.dens_${rho}_${temp}.out
fix             2 all ave/time 20 ${Nrepeat} ${Nfreq} v_Temperature v_PotentialEnergy v_Pressure file out/ave.dens_${rho}_${temp}.out
fix             2 all ave/time 20 50 ${Nfreq} v_Temperature v_PotentialEnergy v_Pressure file out/ave.dens_${rho}_${temp}.out
fix             2 all ave/time 20 50 1000 v_Temperature v_PotentialEnergy v_Pressure file out/ave.dens_${rho}_${temp}.out
fix             2 all ave/time 20 50 1000 v_Temperature v_PotentialEnergy v_Pressure file out/ave.dens_0.001_${temp}.out
fix             2 all ave/time 20 50 1000 v_Temperature v_PotentialEnergy v_Pressure file out/ave.dens_0.001_1.60.out
thermo          10000                               #Specify the interval between screen output of thermodynamic averages
thermo_style    custom step temp epair press        #Print the timestep, temperature, potential energy, and pressure to screen

#Run it!
run             ${nrun}                          #Run the simulation
run             1100000                          
All restart file global fix info was re-assigned
Neighbor list info ...
  update every 20 steps, delay 0 steps, check no
  max neighbors/atom: 2000, page size: 100000
  master list distance cutoff = 8.3
  ghost atom cutoff = 8.3
  binsize = 4.15, bins = 12 12 12
  1 neighbor lists, perpetual/occasional/extra = 1 0 0
  (1) pair lj/cut, perpetual
      attributes: half, newton on
      pair build: half/bin/atomonly/newton
      stencil: half/bin/3d
      bin: standard
Per MPI rank memory allocation (min/avg/max) = 2.563 | 2.563 | 2.563 Mbytes
Step Temp E_pair Press 
       0    1.5308766 -0.017413745 0.0015006288 
   10000    1.4898454 -0.00041070148 0.0014741262 
   20000    1.5792736 -0.015520632 0.0015543612 
   30000     1.820824 -0.028198606  0.001796151 
   40000    1.7723486 -0.0088125954 0.0017409091 
   50000    1.8150816 -0.010989254  0.001793429 
   60000    1.6492922 -0.0018116296 0.0016292547 
   70000    1.5784408 -0.0012838916  0.001560105 
   80000    1.4493356 -0.0081386029 0.0014833655 
   90000    1.8850963 -0.012865736 0.0018667608 
  100000    1.5038484 -0.0065313213 0.0014764203 
  110000    1.5059636 -0.0049737773 0.0014815848 
  120000    1.7612467 -0.0019867427 0.0017397088 
  130000    1.7436066 -0.0026140613 0.0017211093 
  140000     1.665845 -0.0050439459 0.0016403994 
  150000    1.3856033 -0.0039221413 0.0013642861 
  160000    1.5759073  -0.01522254 0.0015371829 
  170000    1.5891044 -0.0039356842 0.0015659337 
  180000    1.5056459 -0.0024442062  0.001485844 
  190000    1.6646429  -0.01213761 0.0016256789 
  200000    1.6766042 -0.0019193757 0.0016560835 
  210000    1.8216827  -0.01644901 0.0017926148 
  220000    1.9306862 -0.0013319137 0.0019087294 
  230000    1.5694354 -0.0043116226 0.0015453229 
  240000    1.6401602 -0.001540545 0.0016206994 
  250000    1.6126395 -0.002010239 0.0015925148 
  260000    1.3701846 -0.00067746277  0.001355131 
  270000    1.8094011 -0.0038761511 0.0017836945 
  280000    1.6836228 -0.0015175596 0.0016637733 
  290000    1.6604413 -0.0061741681  0.001631804 
  300000    1.6058612 -0.018211937  0.001600606 
  310000    1.5303512 -0.0053966888 0.0015050233 
  320000    1.4965293 -0.0033661356 0.0014750729 
  330000    1.6711178 -0.0060257597 0.0016442398 
  340000    1.5274681 -0.0019523015 0.0015083547 
  350000    1.6984327 -0.0085412968 0.0016665067 
  360000    1.7553473 -0.010674846  0.001738621 
  370000    1.8727964 -0.0057133492 0.0019759671 
  380000    1.6376306 -0.020331518 0.0016523719 
  390000    1.7056433 -0.0020245776 0.0016845992 
  400000    1.5256051 -0.0037296234 0.0015030155 
  410000     1.574366 -0.005955387 0.0015490409 
  420000    1.7219933 -0.0071082545  0.001751931 
  430000    1.4205495 -0.010892134 0.0013982603 
  440000    1.6916209 -0.00065416462 0.0016734024 
  450000    1.4604789 -0.00070097478 0.0014444788 
  460000    1.4505733 -0.0016466466  0.001432799 
  470000    1.7900866 -0.019243967 0.0017382454 
  480000    1.6166341 -0.0028807046 0.0015947574 
  490000    1.6595874 -0.011197985 0.0016606593 
  500000    1.7088372 -0.0030362445 0.0016857552 
  510000    1.5031188 -0.001470012 0.0014851762 
  520000    1.5932759   -0.0103775 0.0015601409 
  530000    1.6540815 -0.0025786075  0.001632476 
  540000    1.6851744 -0.0011230088 0.0016661023 
  550000    1.5801208 -0.010903082 0.0015441139 
  560000    1.7712349 -0.0084212476 0.0017423238 
  570000     1.568096 -0.0068569973 0.0015946704 
  580000    1.4841812 -0.0016776381 0.0014660127 
  590000    1.5352307 -0.0020399286 0.0015158842 
  600000    1.4691751 -0.00048459973 0.0014535184 
  610000    1.4658756 -0.014703026 0.0014491349 
  620000    1.5348938 -0.005808359 0.0015087815 
  630000    1.4449329 -0.023836177 0.0014047322 
  640000    1.6235733 -0.0016565177 0.0016040644 
  650000    1.5696662 -0.0021118493 0.0015497755 
  660000    1.6543277 -0.010632205 0.0016459961 
  670000     1.508308 -0.0017630789 0.0014897594 
  680000    1.5684758 -0.011426854 0.0015392781 
  690000     1.602771 -0.0058340974 0.0016470836 
  700000    1.4114653  -0.00114969 0.0013950602 
  710000    1.6741313 -0.012041714 0.0016637888 
  720000     1.471768 -0.018456199 0.0014849334 
  730000    1.4661122 -0.0053429166 0.0014414208 
  740000    1.5692282 -0.012658149 0.0015332721 
  750000    1.6726559 -0.010485699 0.0016575118 
  760000    1.5184823 -0.0034394254 0.0014969051 
  770000    1.5264657 -0.0049020083 0.0015018772 
  780000    1.7085853 -0.0024473962 0.0017777999 
  790000    1.4506293 -0.0007908127 0.0014345463 
  800000    1.6889848 -0.010367205 0.0016559655 
  810000    1.5952572 -0.0011963589 0.0015769289 
  820000    1.6675654 -0.0026842401 0.0016455809 
  830000    1.8897624 -0.0072759961  0.001858712 
  840000    1.5153419 -0.001652857 0.0014969306 
  850000    1.5703123 -0.0051562586 0.0015453946 
  860000    1.5746863 -0.0042622538 0.0015506848 
  870000    1.4813381 -0.0042564999 0.0014582838 
  880000    1.5541616 -0.0056697112  0.001528612 
  890000    1.6818714 -0.00094383354  0.001663183 
  900000    1.7601832 0.0039368258 0.0018532065 
  910000    1.6347522 -0.0041908203 0.0016107549 
  920000    1.5148331 -0.0042197752 0.0014914975 
  930000    1.6140987 -0.013905938 0.0015798174 
  940000    1.4162004 -0.013553392 0.0013891602 
  950000    1.6104977 -0.0019065065 0.0015906787 
  960000    1.3213794 -0.0085554264 0.0012922575 
  970000    1.7422471 -0.0024466295 0.0017200315 
  980000    1.4251584 -0.0091520765 0.0013934455 
  990000    1.6586952 -0.0047495596 0.0016336221 
 1000000    1.4115851 -0.0093793402 0.0013799209 
 1010000    1.2917857 -0.0010018061 0.0012768695 
 1020000    1.5355475 -0.0012224542 0.0015177539 
 1030000    1.4418004 -0.0015957486 0.0014242306 
 1040000    1.4118825 -0.013423921 0.0013738423 
 1050000    1.5296736 -0.011831908 0.0015022669 
 1060000    1.5188599 -0.001147309  0.001501399 
 1070000    1.5094534 -0.020699156 0.0014778526 
 1080000    1.7009542 -0.0081699963  0.001741776 
 1090000     1.645185 -0.013778876 0.0016118682 
 1100000     1.515176 -0.0014930144 0.0014970614 
Loop time of 17.5653 on 8 procs for 1100000 steps with 100 atoms

Performance: 27053277.937 tau/day, 62623.329 timesteps/s
99.9% CPU use with 8 MPI tasks x 1 OpenMP threads

MPI task timing breakdown:
Section |  min time  |  avg time  |  max time  |%varavg| %total
---------------------------------------------------------------
Pair    | 0.53169    | 0.56151    | 0.57724    |   1.8 |  3.20
Neigh   | 0.3976     | 0.40139    | 0.40826    |   0.6 |  2.29
Comm    | 12.452     | 12.492     | 12.547     |   0.9 | 71.11
Output  | 0.0026629  | 0.0039361  | 0.012808   |   5.3 |  0.02
Modify  | 3.6451     | 3.7048     | 3.7696     |   1.9 | 21.09
Other   |            | 0.4021     |            |       |  2.29

Nlocal:        12.5000 ave          16 max           5 min
Histogram: 1 0 0 0 0 0 2 2 1 2
Nghost:        49.7500 ave          55 max          44 min
Histogram: 1 0 0 2 2 1 0 0 0 2
Neighs:        14.5000 ave          20 max           3 min
Histogram: 1 0 0 0 0 2 1 1 1 2

Total # of neighbors = 116
Ave neighs/atom = 1.1600000
Neighbor list builds = 55000
Dangerous builds not checked
Total wall time: 0:00:17
