LAMMPS (14 May 2021)
OMP_NUM_THREADS environment is not set. Defaulting to 1 thread. (src/comm.cpp:98)
  using 1 OpenMP thread(s) per MPI task
# 3D Lennard-Jones NVT

#NOTES:
# The variable "rho" is read from the command line argument:
#  E.G., "lmp_serial -in foo -var rho bar1 -var temp bar2"
#  foo = input filename
#  bar1 = input value for variable rho (density)
#  bar2 = input value for variable temp (temperature)
# The restart file specifies the following:
#   System volume, conformation, periodicity
#   Initial configuration and velocities
#   The molecular model (i.e., pair potential, molecular topology)
# The configuration in the restart file is a relaxed configuration
#   for the temperature at which the configuration was generated (T*=1.50).

read_restart    restart/in.nvt.dens_${rho}               #Specify the LAMMPS restart file
read_restart    restart/in.nvt.dens_0.001               
Reading restart file ...
  restart file = 14 May 2021, LAMMPS = 14 May 2021
  restoring atom style atomic from restart
  orthogonal box = (0.0000000 0.0000000 0.0000000) to (46.415888 46.415888 46.415888)
  2 by 2 by 2 MPI processor grid
  restoring pair style lj/cut from restart
  100 atoms
  read_restart CPU = 0.002 seconds
reset_timestep  0                                #Reset the time step counter to 0

#Run Parameters
variable        ext_temp equal ${temp}           #Specify the Thermostat Temperature
variable        ext_temp equal 0.90           
variable        Nevery equal 20                  #Specify the distance (in timesteps) between samples for computing ensemble averages
                                                 #  (Interval between samples in a block)
variable        Nrepeat equal 50                 #Specify the number of samples per output  of thermodynamic averages
                                                 #  (Samples per block output)
variable        Nfreq equal ${Nevery}*${Nrepeat} #Specify the dump interval (in timesteps)
variable        Nfreq equal 20*${Nrepeat} 
variable        Nfreq equal 20*50 
                                                 #  (Some people call these blocks)
variable        nequil equal 100000             #Equilibration length (in timesteps)
variable        nprod  equal 1000000            #Production length (in timesteps)
variable        nrun equal ${nequil}+${nprod}    #Total run length: equilibration + production (in timesteps)
variable        nrun equal 100000+${nprod}    
variable        nrun equal 100000+1000000    
variable        Tdamp equal 0.500                #Specify the Thermostat damping parameter (in time units ; not timesteps)

#Neighbor List
neighbor        0.3 bin                          #Specify the skin distance (padding beyond the cutoff)
neigh_modify    delay 0 every 20 check no        #Adjust the default neighbor list:
                                                 #  (delay 0)
                                                 #  (every 20)
                                                 #  (check no)

#Ensemble Setup: NVT ensemble, thermostatted by Nose-Hoover a chained thermostat, set at temperature $ext_temp
fix		1 all nvt temp ${ext_temp} ${ext_temp} ${Tdamp}
fix		1 all nvt temp 0.9 ${ext_temp} ${Tdamp}
fix		1 all nvt temp 0.9 0.9 ${Tdamp}
fix		1 all nvt temp 0.9 0.9 0.5
Resetting global fix info from restart file:
  fix style: nvt, fix ID: 1

#Output
variable        PotentialEnergy equal epair         #Call the intermolecular potential energy $PotentialEnergy
variable        Pressure equal press                #Call the pressure $Pressure
variable        Temperature equal temp              #Call the instantaneous temperature $Temperature
fix             2 all ave/time ${Nevery} ${Nrepeat} ${Nfreq} v_Temperature v_PotentialEnergy v_Pressure file out/ave.dens_${rho}_${temp}.out
fix             2 all ave/time 20 ${Nrepeat} ${Nfreq} v_Temperature v_PotentialEnergy v_Pressure file out/ave.dens_${rho}_${temp}.out
fix             2 all ave/time 20 50 ${Nfreq} v_Temperature v_PotentialEnergy v_Pressure file out/ave.dens_${rho}_${temp}.out
fix             2 all ave/time 20 50 1000 v_Temperature v_PotentialEnergy v_Pressure file out/ave.dens_${rho}_${temp}.out
fix             2 all ave/time 20 50 1000 v_Temperature v_PotentialEnergy v_Pressure file out/ave.dens_0.001_${temp}.out
fix             2 all ave/time 20 50 1000 v_Temperature v_PotentialEnergy v_Pressure file out/ave.dens_0.001_0.90.out
thermo          10000                               #Specify the interval between screen output of thermodynamic averages
thermo_style    custom step temp epair press        #Print the timestep, temperature, potential energy, and pressure to screen

#Run it!
run             ${nrun}                          #Run the simulation
run             1100000                          
All restart file global fix info was re-assigned
Neighbor list info ...
  update every 20 steps, delay 0 steps, check no
  max neighbors/atom: 2000, page size: 100000
  master list distance cutoff = 8.3
  ghost atom cutoff = 8.3
  binsize = 4.15, bins = 12 12 12
  1 neighbor lists, perpetual/occasional/extra = 1 0 0
  (1) pair lj/cut, perpetual
      attributes: half, newton on
      pair build: half/bin/atomonly/newton
      stencil: half/bin/3d
      bin: standard
Per MPI rank memory allocation (min/avg/max) = 2.563 | 2.563 | 2.563 Mbytes
Step Temp E_pair Press 
       0    1.5308766 -0.017413745 0.0015006288 
   10000    1.0070979 -0.0021395098 0.00099281232 
   20000   0.97628406 -0.015170324 0.00096178899 
   30000   0.97873918 -0.0077327117 0.00095643417 
   40000    0.8498302 -0.00038400958 0.00084056448 
   50000    1.0157287 -0.0081657979 0.00099105048 
   60000   0.89699302 -0.0049725303 0.00087861983 
   70000   0.86695479 -0.00083421689 0.00085662238 
   80000   0.89943477 -0.0095411462 0.00087537977 
   90000     1.001055 -0.0013814791 0.00098830386 
  100000   0.85096229 -0.0070340566 0.0008314672 
  110000   0.97267812 -0.0050332449 0.00095386034 
  120000   0.90503133 -0.013912899 0.00088937344 
  130000    0.9279894 -0.0029047828 0.0009130394 
  140000    1.0297395 -0.0093553937 0.0010059387 
  150000    1.0597943 -0.002289069 0.0010447259 
  160000   0.82933884 -0.014372094 0.00080439496 
  170000   0.81311082 -0.0078759708 0.00079076851 
  180000   0.80517992 -0.00063571394 0.00079585888 
  190000   0.81370013 -0.010620258 0.00079468553 
  200000   0.89744446 -0.018599457 0.00087668173 
  210000   0.83072981 -0.0023331233 0.00081780283 
  220000    1.0160162 -0.021474931 0.00097587715 
  230000    1.0110161 -0.028478178 0.00095444106 
  240000   0.85892475 -0.0025565232 0.00084534412 
  250000   0.81845929 -0.00068930861 0.00080889845 
  260000   0.93689263 -0.0022713993 0.00092304505 
  270000    1.0200469 -0.0062854758 0.00099836747 
  280000   0.84509461 -0.0030180193 0.00083081844 
  290000   0.76499594 -0.0071288385 0.00074349844 
  300000   0.79487348  -0.01631702 0.00076961139 
  310000   0.79381538 -0.021198136 0.00078373827 
  320000   0.96210804 -0.0077439729 0.00093866749 
  330000   0.97520659 -0.015282484 0.00094242359 
  340000    0.8460694 -0.019990103 0.00081585218 
  350000    0.9609817 -0.010351029 0.00094048021 
  360000   0.83271795 -0.0076777884 0.00086356425 
  370000   0.79795992  -0.01024189 0.0007768956 
  380000    0.8796886 -0.025458182 0.00089531138 
  390000   0.90049057 -0.010199438 0.00088321056 
  400000     0.828572 -0.014965796 0.00080408945 
  410000    0.8744506 -0.049489105 0.00086909674 
  420000    0.8827689  -0.01110079 0.00091107596 
  430000   0.80199431 -0.011554003 0.00078927058 
  440000   0.92649271 -0.0080977093 0.00090175275 
  450000   0.92118528 -0.019570014 0.0008851147 
  460000   0.90665862 -0.009002828 0.0008839827 
  470000   0.90855194 -0.015054568 0.00088535433 
  480000   0.96403706 -0.032989096 0.0009343987 
  490000   0.85927993 -0.016114783 0.00083062971 
  500000   0.91935576 -0.013207455 0.00088760653 
  510000   0.83133022  -0.01807325 0.00081925892 
  520000   0.91715951   -0.0418158 0.00087876268 
  530000   0.82359984 -0.019940074 0.00082953063 
  540000    0.7858555 -0.032413279 0.00074476188 
  550000   0.91143737 -0.014156828 0.00088362665 
  560000    0.9598152 -0.019557175 0.00093322685 
  570000   0.92869783 -0.0092222527 0.0009084586 
  580000   0.81654647 -0.016144921 0.00077894246 
  590000     0.948076 -0.009072982 0.00092509545 
  600000    0.8919868 -0.012695742 0.00086046128 
  610000   0.91150705 -0.0048866324 0.00089285747 
  620000   0.97304616 -0.0043965534 0.00095495402 
  630000   0.91354485 -0.0046962778 0.00089600949 
  640000   0.83381936 -0.00063044016 0.00082422257 
  650000    1.0294817 -0.015588137 0.00099106306 
  660000   0.97715407 -0.010179874 0.00094926237 
  670000   0.85690416 -0.014620791 0.00083695742 
  680000    1.0275889 -0.0086033027 0.0010021726 
  690000   0.92556293 -0.0069479295 0.00090345247 
  700000   0.96488265 -0.0080895897 0.00094311042 
  710000   0.83828052 -0.020365322 0.00083872388 
  720000   0.88670883 -0.0052478739 0.00086894391 
  730000    0.8791587 -0.015873804 0.00084361137 
  740000   0.84160087 -0.029562655 0.00086448756 
  750000   0.93165258 -0.028211366 0.00092765737 
  760000    0.9516469 -0.028959281 0.00099632588 
  770000   0.88558421 -0.016332311 0.00094240639 
  780000   0.86073161 -0.011598237 0.00083658277 
  790000   0.87890069 -0.011767988 0.00086992044 
  800000   0.83767208 -0.0071120281 0.00081635495 
  810000   0.88735839 -0.009357958 0.00086799735 
  820000   0.92994068 -0.00099572062 0.00091865962 
  830000   0.87409806 -0.011104203 0.00085223796 
  840000   0.71136083 -0.0063412826 0.00069247329 
  850000   0.84548167 -0.0027403833 0.00083159788 
  860000   0.94568949 -0.011750089 0.0009327627 
  870000   0.89416983 -0.0080826705 0.00087074232 
  880000   0.84831787 -0.0038409761 0.00083258915 
  890000   0.86140286 -0.016945361 0.00092561377 
  900000   0.89126603 -0.0087125151 0.00086939367 
  910000   0.84205189 -0.012361305 0.00081256574 
  920000   0.85997021 -0.0010245645 0.00084933043 
  930000    1.0392469 -0.013976361 0.0010065637 
  940000   0.93231395 -0.013103244 0.00092927982 
  950000   0.85937339 0.0033208125 0.00096248697 
  960000   0.95044986 -0.0030473895 0.0009351692 
  970000    1.0283019 -0.00097453004 0.0010160771 
  980000    0.8784026 -0.0082824327 0.00085627712 
  990000   0.89362504 -0.0089412241 0.00086981161 
 1000000    0.8518873 -0.0021459858 0.00083919528 
 1010000   0.91494751 -0.0068570503 0.00089265226 
 1020000   0.89680295 -0.009647923 0.00091761976 
 1030000   0.80730523 -0.0087458048 0.00078811371 
 1040000   0.80609613 -0.0069287416 0.00078754552 
 1050000   0.88245099 -0.025087593 0.00085996485 
 1060000   0.85061872 -0.00048958045 0.0008411343 
 1070000   0.97235378 -0.0048540212 0.00095357855 
 1080000   0.90170762 -0.013700089 0.00088645084 
 1090000   0.96944307 -0.017396155 0.00096123444 
 1100000   0.84333115 -0.0076561009 0.00087038399 
Loop time of 17.642 on 8 procs for 1100000 steps with 100 atoms

Performance: 26935782.068 tau/day, 62351.347 timesteps/s
99.8% CPU use with 8 MPI tasks x 1 OpenMP threads

MPI task timing breakdown:
Section |  min time  |  avg time  |  max time  |%varavg| %total
---------------------------------------------------------------
Pair    | 0.55054    | 0.56674    | 0.58016    |   1.2 |  3.21
Neigh   | 0.39499    | 0.40068    | 0.40583    |   0.5 |  2.27
Comm    | 12.52      | 12.566     | 12.611     |   1.0 | 71.23
Output  | 0.0027021  | 0.0041351  | 0.014147   |   5.9 |  0.02
Modify  | 3.6453     | 3.7014     | 3.7532     |   2.3 | 20.98
Other   |            | 0.4031     |            |       |  2.28

Nlocal:        12.5000 ave          14 max          11 min
Histogram: 2 0 0 2 0 0 2 0 0 2
Nghost:        47.6250 ave          54 max          41 min
Histogram: 2 0 1 1 0 0 0 2 1 1
Neighs:        13.3750 ave          21 max           5 min
Histogram: 1 0 0 2 1 1 1 0 1 1

Total # of neighbors = 107
Ave neighs/atom = 1.0700000
Neighbor list builds = 55000
Dangerous builds not checked
Total wall time: 0:00:17
