LAMMPS (14 May 2021)
OMP_NUM_THREADS environment is not set. Defaulting to 1 thread. (src/comm.cpp:98)
  using 1 OpenMP thread(s) per MPI task
# 3D Lennard-Jones NVT

#NOTES:
# The variable "rho" is read from the command line argument:
#  E.G., "lmp_serial -in foo -var rho bar1 -var temp bar2"
#  foo = input filename
#  bar1 = input value for variable rho (density)
#  bar2 = input value for variable temp (temperature)
# The restart file specifies the following:
#   System volume, conformation, periodicity
#   Initial configuration and velocities
#   The molecular model (i.e., pair potential, molecular topology)
# The configuration in the restart file is a relaxed configuration
#   for the temperature at which the configuration was generated (T*=1.50).

read_restart    restart/in.nvt.dens_${rho}               #Specify the LAMMPS restart file
read_restart    restart/in.nvt.dens_0.010               
Reading restart file ...
  restart file = 14 May 2021, LAMMPS = 14 May 2021
  restoring atom style atomic from restart
  orthogonal box = (0.0000000 0.0000000 0.0000000) to (21.544347 21.544347 21.544347)
  2 by 2 by 2 MPI processor grid
  restoring pair style lj/cut from restart
  100 atoms
  read_restart CPU = 0.002 seconds
reset_timestep  0                                #Reset the time step counter to 0

#Run Parameters
variable        ext_temp equal ${temp}           #Specify the Thermostat Temperature
variable        ext_temp equal 1.30           
variable        Nevery equal 20                  #Specify the distance (in timesteps) between samples for computing ensemble averages
                                                 #  (Interval between samples in a block)
variable        Nrepeat equal 50                 #Specify the number of samples per output  of thermodynamic averages
                                                 #  (Samples per block output)
variable        Nfreq equal ${Nevery}*${Nrepeat} #Specify the dump interval (in timesteps)
variable        Nfreq equal 20*${Nrepeat} 
variable        Nfreq equal 20*50 
                                                 #  (Some people call these blocks)
variable        nequil equal 100000             #Equilibration length (in timesteps)
variable        nprod  equal 1000000            #Production length (in timesteps)
variable        nrun equal ${nequil}+${nprod}    #Total run length: equilibration + production (in timesteps)
variable        nrun equal 100000+${nprod}    
variable        nrun equal 100000+1000000    
variable        Tdamp equal 0.500                #Specify the Thermostat damping parameter (in time units ; not timesteps)

#Neighbor List
neighbor        0.3 bin                          #Specify the skin distance (padding beyond the cutoff)
neigh_modify    delay 0 every 20 check no        #Adjust the default neighbor list:
                                                 #  (delay 0)
                                                 #  (every 20)
                                                 #  (check no)

#Ensemble Setup: NVT ensemble, thermostatted by Nose-Hoover a chained thermostat, set at temperature $ext_temp
fix		1 all nvt temp ${ext_temp} ${ext_temp} ${Tdamp}
fix		1 all nvt temp 1.3 ${ext_temp} ${Tdamp}
fix		1 all nvt temp 1.3 1.3 ${Tdamp}
fix		1 all nvt temp 1.3 1.3 0.5
Resetting global fix info from restart file:
  fix style: nvt, fix ID: 1

#Output
variable        PotentialEnergy equal epair         #Call the intermolecular potential energy $PotentialEnergy
variable        Pressure equal press                #Call the pressure $Pressure
variable        Temperature equal temp              #Call the instantaneous temperature $Temperature
fix             2 all ave/time ${Nevery} ${Nrepeat} ${Nfreq} v_Temperature v_PotentialEnergy v_Pressure file out/ave.dens_${rho}_${temp}.out
fix             2 all ave/time 20 ${Nrepeat} ${Nfreq} v_Temperature v_PotentialEnergy v_Pressure file out/ave.dens_${rho}_${temp}.out
fix             2 all ave/time 20 50 ${Nfreq} v_Temperature v_PotentialEnergy v_Pressure file out/ave.dens_${rho}_${temp}.out
fix             2 all ave/time 20 50 1000 v_Temperature v_PotentialEnergy v_Pressure file out/ave.dens_${rho}_${temp}.out
fix             2 all ave/time 20 50 1000 v_Temperature v_PotentialEnergy v_Pressure file out/ave.dens_0.010_${temp}.out
fix             2 all ave/time 20 50 1000 v_Temperature v_PotentialEnergy v_Pressure file out/ave.dens_0.010_1.30.out
thermo          10000                               #Specify the interval between screen output of thermodynamic averages
thermo_style    custom step temp epair press        #Print the timestep, temperature, potential energy, and pressure to screen

#Run it!
run             ${nrun}                          #Run the simulation
run             1100000                          
All restart file global fix info was re-assigned
Neighbor list info ...
  update every 20 steps, delay 0 steps, check no
  max neighbors/atom: 2000, page size: 100000
  master list distance cutoff = 8.3
  ghost atom cutoff = 8.3
  binsize = 4.15, bins = 6 6 6
  1 neighbor lists, perpetual/occasional/extra = 1 0 0
  (1) pair lj/cut, perpetual
      attributes: half, newton on
      pair build: half/bin/atomonly/newton
      stencil: half/bin/3d
      bin: standard
Per MPI rank memory allocation (min/avg/max) = 2.560 | 2.561 | 2.561 Mbytes
Step Temp E_pair Press 
       0    1.3729518  -0.12868151  0.012805955 
   10000     1.236175 -0.046527246  0.011536856 
   20000    1.3105812 -0.049972409  0.012363779 
   30000    1.2525493  -0.11981645  0.012579544 
   40000    1.2692108 -0.061857026  0.012316746 
   50000    1.2461181 -0.061601531   0.01190494 
   60000    1.1908317 -0.056190746  0.011187198 
   70000    1.3933403 -0.088472828  0.013634291 
   80000    1.3685245 -0.058841151  0.013302286 
   90000    1.2383418 -0.070464063  0.012289975 
  100000    1.1908666  -0.10046572  0.011387923 
  110000    1.2160098 -0.071270451  0.012515652 
  120000    1.1200914  -0.10364188 0.0098292532 
  130000    1.4913227  -0.12336399  0.013743266 
  140000    1.4538268 -0.082023952  0.013755158 
  150000    1.2044395  -0.05759083  0.011240786 
  160000    1.2141886 -0.081211902  0.011063734 
  170000    1.3401363 -0.069566993   0.01232701 
  180000    1.3114733 -0.082390688  0.012796012 
  190000    1.3366535 -0.070741922  0.013103698 
  200000    1.1237375  -0.10992935  0.010704296 
  210000    1.3849954 -0.089281432  0.012511027 
  220000    1.3048039 -0.054175251  0.012273122 
  230000    1.2708259 -0.078521788  0.011721228 
  240000    1.4439151  -0.06379077  0.013978091 
  250000    1.2420494 -0.059803787  0.012139575 
  260000    1.3139321 -0.063425603   0.01205993 
  270000    1.4143071 -0.084055597  0.013255257 
  280000    1.4614367  -0.10171025  0.014067542 
  290000    1.2618612 -0.054474531   0.01158987 
  300000    1.3971442 -0.056132441  0.015580498 
  310000    1.2210041 -0.065209588  0.011074104 
  320000    1.1184229 -0.062933978  0.010102839 
  330000    1.3833939 -0.057803616  0.012791428 
  340000    1.3864044  -0.11387513  0.013496139 
  350000    1.3667006 -0.060422708  0.012538049 
  360000    1.1803315  -0.10412135  0.011188298 
  370000     1.214652  -0.10352926  0.010689128 
  380000    1.3123599  -0.10013585  0.012004748 
  390000    1.2497569 -0.071019935  0.014378626 
  400000     1.153163 -0.087553336  0.010296914 
  410000    1.3385643 -0.072343285  0.013380491 
  420000    1.2381162 -0.076046248  0.012574407 
  430000    1.3842021 -0.066433706  0.013079801 
  440000     1.156507 -0.069708121   0.01114984 
  450000    1.1993685 -0.053526489  0.010947917 
  460000    1.2288221 -0.057082299  0.013026037 
  470000    1.2661552 -0.087176285  0.012571478 
  480000    1.4483762 -0.083148667  0.013091624 
  490000    1.4641411 -0.073232195  0.013569148 
  500000    1.3808632 -0.085510429  0.012969977 
  510000    1.3749784 -0.092828256  0.012917496 
  520000    1.4372674 -0.073108808  0.013426647 
  530000    1.4297937 -0.078402902  0.013179141 
  540000     1.305242 -0.073251392  0.012166361 
  550000    1.4115855  -0.04296607  0.013205472 
  560000    1.3444925 -0.077230907  0.013060549 
  570000    1.3056775 -0.042703443   0.01220428 
  580000    1.2137115 -0.070109166  0.011081981 
  590000    1.5517094  -0.11961582  0.014753928 
  600000     1.307849 -0.088097784  0.012210025 
  610000    1.4049845 -0.072803835  0.012795321 
  620000    1.1446899  -0.11129582  0.010666943 
  630000    1.3691516 -0.075746498  0.013288928 
  640000    1.2076686  -0.08315901  0.011540852 
  650000    1.2758103 -0.079717397  0.011902881 
  660000    1.2509295 -0.045265887  0.011605218 
  670000    1.3004863 -0.099549199  0.011852957 
  680000    1.4030354 -0.042046109  0.013891528 
  690000    1.4805006 -0.044288604  0.015859605 
  700000    1.3391401 -0.054039919  0.012838764 
  710000    1.1764296   -0.0872226  0.012196573 
  720000    1.5466179  -0.14009704  0.014384653 
  730000    1.3480112 -0.077459227  0.013240765 
  740000    1.1634298 -0.073828477  0.010698996 
  750000    1.3467993 -0.075207693  0.014726908 
  760000    1.2701905 -0.090536189  0.012354762 
  770000    1.2100859  -0.09496236  0.010459859 
  780000    1.3304293  -0.05040842  0.012342515 
  790000    1.2934794  -0.09346245  0.012269228 
  800000    1.4081524 -0.096533967  0.013617447 
  810000    1.2829009 -0.098663834  0.012817564 
  820000    1.1887121 -0.074860792  0.010659596 
  830000    1.2572881 -0.047681087  0.011557054 
  840000    1.3676008 -0.077539254  0.013657516 
  850000    1.4198848 -0.076581918  0.013742923 
  860000    1.3497428 -0.099291887  0.012224825 
  870000    1.2695775  -0.07962091  0.011846882 
  880000    1.3201757 -0.063686747  0.013587656 
  890000    1.2341945 -0.059597873  0.011509525 
  900000    1.3774475 -0.064745684  0.012679385 
  910000    1.2616736 -0.036478641    0.0123816 
  920000    1.2255428 -0.098249857  0.011219918 
  930000    1.3446944 -0.070324713  0.012659747 
  940000    1.3579786 -0.052123487  0.012709311 
  950000    1.1849778  -0.08169504  0.011402981 
  960000    1.2953466 -0.048736775   0.01342418 
  970000    1.4420569 -0.095061067  0.014031814 
  980000    1.4143622 -0.096976551  0.012653979 
  990000    1.2663597  -0.13968485  0.011359762 
 1000000    1.3221763 -0.088817053  0.013142092 
 1010000    1.3654789  -0.11537329  0.012995592 
 1020000    1.3132974 -0.039075525  0.012313242 
 1030000    1.2494967  -0.09445774  0.011862306 
 1040000     1.199263   -0.1354779   0.01081341 
 1050000    1.2591068 -0.089559273  0.011356361 
 1060000    1.3409785  -0.11557823  0.013096201 
 1070000    1.3257977 -0.080758773  0.012331231 
 1080000     1.197789  -0.09775598  0.014149132 
 1090000    1.2423703 -0.088250338  0.011945119 
 1100000    1.4069257 -0.083169893  0.012731078 
Loop time of 28.7253 on 8 procs for 1100000 steps with 100 atoms

Performance: 16542935.470 tau/day, 38293.832 timesteps/s
99.8% CPU use with 8 MPI tasks x 1 OpenMP threads

MPI task timing breakdown:
Section |  min time  |  avg time  |  max time  |%varavg| %total
---------------------------------------------------------------
Pair    | 3.4209     | 3.5698     | 3.7094     |   5.3 | 12.43
Neigh   | 0.91201    | 0.92224    | 0.93898    |   1.0 |  3.21
Comm    | 19.728     | 19.869     | 20.004     |   2.4 | 69.17
Output  | 0.0027411  | 0.0035782  | 0.0094027  |   3.7 |  0.01
Modify  | 3.7814     | 3.8106     | 3.8361     |   1.1 | 13.27
Other   |            | 0.5499     |            |       |  1.91

Nlocal:        12.5000 ave          19 max           4 min
Histogram: 1 0 0 0 1 2 2 0 1 1
Nghost:        202.375 ave         220 max         188 min
Histogram: 2 0 0 1 2 1 1 0 0 1
Neighs:        147.625 ave         239 max          42 min
Histogram: 1 0 0 1 0 3 2 0 0 1

Total # of neighbors = 1181
Ave neighs/atom = 11.810000
Neighbor list builds = 55000
Dangerous builds not checked
Total wall time: 0:00:28
